# LAMMPS data file written by Ovito 3.0.0-dev349
160 atoms
160 bonds
6 atom types
12 bond types
-1.4291181565 1.4291181565 xlo xhi
-1.4291181565 1.4291181565 ylo yhi
-1.4291181565 1.4291181565 zlo zhi

Atoms # full

1 1 1 0.0 1.068158865 -0.1263397783 0.4630355537 0 0 0
2 1 2 0.0 -1.3506042957 -0.3712830245 0.0664323419 1 0 0
3 1 3 0.0 -1.1937836409 -0.6965475082 -0.1770959347 1 0 0
4 1 1 0.0 -0.8206585646 1.0633217096 -1.2676627636 1 0 1
5 1 2 0.0 -1.0978832245 0.9399747849 1.2754864693 1 0 0
6 1 3 0.0 -1.3854064941 1.0153340101 0.942194283 1 0 0
7 1 1 0.0 -0.2911886275 0.17072317 0.3481648564 1 -1 0
8 1 2 0.0 -0.1855475903 0.1024084762 0.8122156858 1 -1 0
9 1 3 0.0 0.0219148304 -0.0266099274 1.1688488722 1 -1 0
10 1 1 0.0 1.3274277449 1.3000712395 -0.2862846553 -1 -1 0
11 1 2 0.0 1.0856441259 -1.3321094513 -0.5854312778 -1 0 0
12 1 3 0.0 0.9943455458 -1.2718501091 -0.9965719581 -1 0 0
13 1 1 0.0 -1.3209220171 -0.37189731 0.6169595122 0 0 0
14 1 2 0.0 -1.1813198328 -0.0081846183 0.4992499053 0 0 0
15 1 3 0.0 -1.2046934366 0.4300081134 0.4597691298 0 0 0
16 1 1 0.0 -0.7825741172 -0.8946970701 -0.9354879856 -1 0 1
17 1 2 0.0 -0.6353343725 -0.4649858475 -1.0253405571 -1 0 1
18 1 3 0.0 -0.3157747388 -0.0919856578 -0.9603719711 -1 0 1
19 1 1 0.0 0.5742507577 -1.1623928547 -0.4542857111 -1 0 1
20 1 2 0.0 0.6862258911 -0.7711693048 -0.7456280589 -1 0 1
21 1 3 0.0 0.6842511296 -0.6159350276 -1.2039462328 -1 0 1
22 1 1 0.0 1.041210413 0.429969728 -0.8532501459 0 0 1
23 1 2 0.0 1.1821169853 0.5605104566 -1.1748726368 0 0 1
24 1 3 0.0 -1.4213237762 0.5074977875 1.3262099028 1 0 0
25 1 1 0.0 1.1649149656 0.1369592845 -0.0108290408 0 0 1
26 1 2 0.0 0.9519332647 -0.3815031648 0.0233900715 0 0 1
27 1 3 0.0 1.0580986738 -0.8359529972 0.1436666697 0 0 1
28 1 1 0.0 0.5016499758 -0.8952230811 -0.003821204 0 0 0
29 1 2 0.0 0.5048664808 -0.6484007239 0.3145465851 0 0 0
30 1 3 0.0 0.2592602968 -0.3932713866 0.6674975157 0 0 0
31 1 1 0.0 -0.2860083878 -0.5541371107 -1.4173580408 0 1 1
32 1 2 0.0 -0.3043965697 -0.534758687 0.9705488682 0 1 0
33 1 3 0.0 -0.4544973373 -0.313801825 0.6215510964 0 1 0
34 1 1 0.0 0.5781746507 0.2260096222 0.9926305413 0 -1 -1
35 1 2 0.0 0.9967881441 -0.0069613955 1.2346047163 0 -1 -1
36 1 3 0.0 1.222689271 0.0307151917 -1.164360404 0 -1 0
37 1 1 0.0 1.1450281143 0.9767109752 1.3265045881 0 0 0
38 1 2 0.0 0.7641394734 0.8228963614 1.0657227039 0 0 0
39 1 3 0.0 0.3194976747 0.9442728758 0.8382634521 0 0 0
40 1 1 0.0 0.2891692519 -1.1401010752 0.4609587193 0 0 0
41 1 2 0.0 0.0691939592 1.318169117 0.5602124333 0 -1 0
42 1 3 0.0 -0.0235646069 0.9804978371 0.4436018467 0 -1 0
43 1 1 0.0 0.0666747764 -1.0101400614 -0.7790446877 0 0 0
44 1 2 0.0 -0.3435210884 -1.1747797728 -0.7259494662 0 0 0
45 1 3 0.0 -0.6617103815 1.411329031 -0.9336726069 0 -1 0
46 1 1 0.0 -0.2729246318 -1.1449072361 0.4814036191 1 0 0
47 1 2 0.0 -0.5304200053 -0.8338916898 0.6706930995 1 0 0
48 1 3 0.0 -0.7774318457 -0.6757244468 1.04210639 1 0 0
49 1 1 0.0 -0.8124096394 -0.4845414162 0.2676280737 0 1 0
50 1 2 0.0 -0.5204872489 -0.9131361246 0.0536000133 0 1 0
51 1 3 0.0 -0.1126069054 -1.0381007195 -0.2397149503 0 1 0
52 1 1 0.0 -1.2272655964 -0.44819206 1.2330951691 0 1 0
53 1 2 0.0 -1.0955690145 -0.0897082165 0.9865124226 0 1 0
54 1 3 0.0 -0.6940140128 0.2209189981 0.7772037983 0 1 0
55 1 1 0.0 1.1202117205 -0.5750184655 -1.0001182556 -1 0 1
56 1 2 0.0 1.2088696957 -0.4855896533 -1.333157897 -1 0 1
57 1 3 0.0 1.120393157 -0.5885409117 1.1741526127 -1 0 0
58 1 1 0.0 1.3082966805 0.9192358255 -0.8114484549 -1 0 0
59 1 2 0.0 -1.2826267481 1.3034068346 -1.1036168337 0 0 0
60 1 3 0.0 -1.0009281635 -1.3794113398 1.284121871 0 1 -1
61 1 4 0.0 -1.3700860739 0.7665528059 -0.3190175593 1 0 0
62 1 2 0.0 -1.2443158627 0.9222149849 0.1073609442 1 0 0
63 1 6 0.0 -1.1739284992 1.1939917803 0.457449764 1 0 0
64 1 2 0.0 -1.262607336 -1.2898737192 0.7200093269 1 1 0
65 1 5 0.0 -1.39666605 -0.9057250619 0.8656183481 1 1 0
66 1 4 0.0 0.861743927 -0.2961761355 -0.6714171767 -1 0 0
67 1 2 0.0 0.6758854985 -0.073749274 -0.3271902502 -1 0 0
68 1 6 0.0 0.6692714095 0.1885075271 0.1130150557 -1 0 0
69 1 2 0.0 0.819940269 0.3668771982 0.5203092098 -1 0 0
70 1 5 0.0 1.0938808918 0.4168324471 0.8919674754 -1 0 0
71 1 4 0.0 -0.8933458924 0.7645106912 0.7565953732 0 -1 0
72 1 2 0.0 -0.7232490778 1.1939589977 0.9686220288 0 -1 0
73 1 6 0.0 -0.4761885107 -1.2661478519 1.0079716444 0 0 0
74 1 2 0.0 -0.0594131872 -0.9712575078 1.1873323917 0 0 0
75 1 5 0.0 0.3056461811 -0.8777134418 1.3866456747 0 0 0
76 1 4 0.0 0.2271848917 0.5149547458 1.2064201832 0 0 -1
77 1 2 0.0 -0.0648971796 0.7567871213 -1.3135579824 0 0 0
78 1 6 0.0 -0.2555741668 1.0352064371 -0.8869024515 0 0 0
79 1 2 0.0 -0.4116834104 1.2637146711 -0.4011726975 0 0 0
80 1 5 0.0 -0.4218765497 -1.3947793245 0.0129688345 0 1 0
81 1 4 0.0 0.7860920429 -1.2644997835 0.4383040369 -1 1 0
82 1 2 0.0 1.2480485439 -1.3395699263 0.2962576151 -1 1 0
83 1 6 0.0 -1.1652598381 -1.3575856686 0.0880885571 0 1 0
84 1 2 0.0 -0.9626021385 -1.2593239546 -0.1496054083 0 1 0
85 1 5 0.0 -0.7776788473 -1.0671893358 -0.4487528801 0 1 0
86 1 4 0.0 0.2873995304 -1.3377218246 -0.0971264839 0 1 0
87 1 2 0.0 0.2487879694 1.1477510929 -0.2879857123 0 0 0
88 1 6 0.0 0.1827618629 0.7772126198 -0.5292465091 0 0 0
89 1 2 0.0 0.1047288999 0.4786699414 -0.8897579908 0 0 0
90 1 5 0.0 0.0515023582 0.2091940492 -1.2762457132 0 0 0
91 1 4 0.0 -0.2179325819 0.1332780719 -0.4856492579 0 0 0
92 1 2 0.0 -0.0161662921 0.3615061343 -0.1184300333 0 0 0
93 1 6 0.0 0.3280405998 0.6235330105 0.1296153069 0 0 0
94 1 2 0.0 0.6125406623 0.7953597903 0.1888414025 0 0 0
95 1 5 0.0 1.0611515045 1.0144146681 0.0724863634 0 0 0
96 1 4 0.0 -0.032095775 -0.7211266756 0.2508793473 0 0 0
97 1 2 0.0 -0.3276355863 -0.3692729473 0.0685723349 0 0 0
98 1 6 0.0 -0.6397957802 -0.0431102403 -0.1643599719 0 0 0
99 1 2 0.0 -0.7365241647 0.314035207 -0.4917187691 0 0 0
100 1 5 0.0 -0.8374992013 0.7798295617 -0.8273120522 0 0 0
101 1 4 0.0 0.2329999655 -0.6773898005 -0.4326789081 0 0 0
102 1 2 0.0 0.2749260962 -0.4547432065 -0.1822678 0 0 0
103 1 6 0.0 0.2827154696 -0.1758649796 0.1469172537 0 0 0
104 1 2 0.0 0.2258843482 0.1128341109 0.4170241356 0 0 0
105 1 5 0.0 0.1163226664 0.5012300014 0.5965790749 0 0 0
106 1 4 0.0 1.4097229242 0.1937814951 -0.5016936064 -1 0 0
107 1 2 0.0 -1.1614160538 0.3263972402 -0.9254738092 0 0 0
108 1 6 0.0 -0.8327996731 0.5174461603 -1.2955265045 0 0 0
109 1 2 0.0 -0.5806595683 0.7162368894 1.1725498438 0 0 -1
110 1 5 0.0 -0.1778549254 0.8375769258 0.9724289179 0 0 -1
111 1 4 0.0 0.9546082616 -0.7376750112 -0.3333913386 -1 0 0
112 1 2 0.0 1.272792697 -0.553540647 -0.512249589 -1 0 0
113 1 6 0.0 -1.2505810261 -0.4354933798 -0.8173773289 0 0 0
114 1 2 0.0 -1.1445072889 -0.2026001364 -1.1236425638 0 0 0
115 1 5 0.0 -1.1936084032 0.0822492242 1.4073879719 0 0 -1
116 1 4 0.0 -1.3243860006 -0.8902323842 0.3255232275 -1 1 0
117 1 2 0.0 -0.9382990599 -1.0244995356 0.3956491649 -1 1 0
118 1 6 0.0 -0.7278693914 -1.3324136734 0.4772489965 -1 1 0
119 1 2 0.0 -0.5424509048 1.1138743162 0.5096444488 -1 0 0
120 1 5 0.0 -0.3682377934 0.6699922085 0.4377319813 -1 0 0
121 1 4 0.0 -0.6630447507 -0.5693119764 -0.4494984448 1 0 0
122 1 2 0.0 -0.1996060908 -0.5500096679 -0.6681387424 1 0 0
123 1 6 0.0 0.1660867929 -0.4842227101 -1.1483941078 1 0 0
124 1 2 0.0 0.4887241125 -0.3951229453 1.2510125637 1 0 -1
125 1 5 0.0 0.7945625782 -0.3054592013 0.8578270078 1 0 -1
126 1 4 0.0 -0.2035400271 0.877127409 -0.0500309169 0 0 0
127 1 2 0.0 -0.3277281821 0.6868736744 -0.5640290976 0 0 0
128 1 6 0.0 -0.4459273219 0.4679353237 -0.9954354763 0 0 0
129 1 2 0.0 -0.5745946765 0.1167556867 -1.4233919382 0 0 0
130 1 5 0.0 -0.6514520645 -0.2306617498 1.2303287983 0 0 -1
131 1 4 0.0 0.6342085004 -0.0945336893 -1.2188282013 0 0 0
132 1 2 0.0 0.5796220303 0.3801677823 -1.2106252909 0 0 0
133 1 6 0.0 0.5892957449 0.9073008299 -1.2906324863 0 0 0
134 1 2 0.0 0.5927095413 1.3953406811 -1.4231212139 0 0 0
135 1 5 0.0 0.8041311502 -0.9686877131 1.2861963511 0 1 -1
136 1 4 0.0 -1.4180407524 -0.9751893282 -0.7988739014 1 1 0
137 1 2 0.0 -1.2051143646 -1.3396713734 -0.5861964226 1 1 0
138 1 6 0.0 -1.001855135 1.1298985481 -0.4482382238 1 0 0
139 1 2 0.0 -0.8465696573 0.7887037992 -0.2287749648 1 0 0
140 1 5 0.0 -0.5901924372 0.4934055805 0.0292369016 1 0 0
141 1 4 0.0 0.9479256272 -1.2788485289 -0.1168426201 -1 0 0
142 1 2 0.0 0.7708553076 1.0769678354 -0.3443376422 -1 -1 0
143 1 6 0.0 0.6612058282 0.6537316442 -0.4159315228 -1 -1 0
144 1 2 0.0 0.4698910415 0.278146565 -0.6354108453 -1 -1 0
145 1 5 0.0 0.188138634 -0.0279004425 -0.8480125666 -1 -1 0
146 1 4 0.0 -0.3867956698 1.2043771744 1.3967989683 0 -1 -1
147 1 2 0.0 0.0791706219 1.3646504879 1.2307035923 0 -1 -1
148 1 6 0.0 0.4617278278 -1.2186857462 0.9909657836 0 0 -1
149 1 2 0.0 0.7674162388 -0.937014997 0.78605479 0 0 -1
150 1 5 0.0 1.088367939 -0.6427702308 0.6429316401 0 0 -1
151 1 4 0.0 0.8363037705 1.0549240112 -0.8302417994 0 -1 1
152 1 2 0.0 0.4074062705 1.2645810843 -0.9148643017 0 -1 1
153 1 6 0.0 0.0303464718 -1.4175211191 -1.1005035639 0 0 1
154 1 2 0.0 -0.3474332094 -1.1810631752 -1.2605626583 0 0 1
155 1 5 0.0 -0.6076782346 -0.9784704447 1.3637484312 0 0 0
156 1 4 0.0 -1.1744339466 -1.0333826542 -1.2414466143 1 0 0
157 1 2 0.0 1.313791275 -1.1700527668 1.3096107244 0 0 -1
158 1 6 0.0 1.0807379484 1.4013111591 1.0316295624 0 -1 -1
159 1 2 0.0 1.0425591469 1.1058712006 0.7118433714 0 -1 -1
160 1 5 0.0 1.2271491289 0.7177103162 0.5191587806 0 -1 -1

Bonds

1 1 1 2
2 12 1 125
3 2 2 3
4 7 3 121
5 1 4 5
6 11 4 146
7 12 4 100
8 2 5 6
9 1 7 8
10 12 7 140
11 12 7 120
12 2 8 9
13 8 9 90
14 1 10 11
15 12 10 95
16 2 11 12
17 1 13 14
18 12 13 150
19 2 14 15
20 8 15 160
21 7 15 71
22 1 16 17
23 12 16 85
24 11 16 156
25 2 17 18
26 8 18 145
27 7 18 91
28 1 19 20
29 2 20 21
30 8 21 75
31 7 21 131
32 1 22 23
33 2 23 24
34 8 24 70
35 8 24 115
36 1 25 26
37 11 25 106
38 2 26 27
39 7 27 141
40 7 27 116
41 1 28 29
42 11 28 111
43 11 28 86
44 2 29 30
45 1 31 32
46 2 32 33
47 1 34 35
48 11 34 76
49 2 35 36
50 1 37 38
51 2 38 39
52 8 39 110
53 1 40 41
54 11 40 96
55 11 40 81
56 2 41 42
57 8 42 105
58 7 42 126
59 1 43 44
60 11 43 101
61 2 44 45
62 1 46 47
63 12 46 80
64 2 47 48
65 8 48 130
66 8 48 155
67 1 49 50
68 2 50 51
69 1 52 53
70 2 53 54
71 1 55 56
72 11 55 66
73 11 55 136
74 2 56 57
75 8 57 65
76 8 57 135
77 1 58 59
78 11 58 61
79 11 58 151
80 2 59 60
81 5 61 62
82 4 62 63
83 4 63 64
84 3 64 65
85 5 66 67
86 4 67 68
87 4 68 69
88 3 69 70
89 5 71 72
90 4 72 73
91 4 73 74
92 3 74 75
93 5 76 77
94 4 77 78
95 4 78 79
96 3 79 80
97 5 81 82
98 4 82 83
99 4 83 84
100 3 84 85
101 5 86 87
102 4 87 88
103 4 88 89
104 3 89 90
105 5 91 92
106 4 92 93
107 4 93 94
108 3 94 95
109 5 96 97
110 4 97 98
111 4 98 99
112 3 99 100
113 5 101 102
114 4 102 103
115 4 103 104
116 3 104 105
117 5 106 107
118 4 107 108
119 4 108 109
120 3 109 110
121 5 111 112
122 4 112 113
123 4 113 114
124 3 114 115
125 5 116 117
126 4 117 118
127 4 118 119
128 3 119 120
129 5 121 122
130 4 122 123
131 4 123 124
132 3 124 125
133 5 126 127
134 4 127 128
135 4 128 129
136 3 129 130
137 5 131 132
138 4 132 133
139 4 133 134
140 3 134 135
141 5 136 137
142 4 137 138
143 4 138 139
144 3 139 140
145 5 141 142
146 4 142 143
147 4 143 144
148 3 144 145
149 5 146 147
150 4 147 148
151 4 148 149
152 3 149 150
153 5 151 152
154 4 152 153
155 4 153 154
156 3 154 155
157 5 156 157
158 4 157 158
159 4 158 159
160 3 159 160
