# LAMMPS data file written by Ovito 3.0.0-dev349
160 atoms
160 bonds
6 atom types
12 bond types
-1.4289382695 1.4289382695 xlo xhi
-1.4289382695 1.4289382695 ylo yhi
-1.4289382695 1.4289382695 zlo zhi

Atoms # full

1 1 1 0.0 1.1412005424 -0.0761494935 0.380989641 0 0 0
2 1 2 0.0 -1.3659625053 -0.2677762508 0.1952501833 1 0 0
3 1 3 0.0 -0.9898777604 -0.219004482 -0.1951502115 1 0 0
4 1 1 0.0 -0.8048143983 1.0050158501 -1.1264555454 1 0 1
5 1 2 0.0 -1.1524902582 0.9410651326 -1.4249068499 1 0 1
6 1 3 0.0 1.2821466923 0.9932276607 1.3473374844 0 0 0
7 1 1 0.0 -0.3235966563 0.3120374382 0.3990985751 1 -1 0
8 1 2 0.0 -0.3087521791 -0.1339082122 0.6727923155 1 -1 0
9 1 3 0.0 -0.1327616125 -0.3475539684 1.0774644613 1 -1 0
10 1 1 0.0 1.3925163746 1.3098329306 -0.1363027543 -1 -1 0
11 1 2 0.0 1.1308742762 1.3984062672 -0.5709043741 -1 -1 0
12 1 3 0.0 1.0995634794 -1.3719208241 -1.0346041918 -1 0 0
13 1 1 0.0 -1.2926920652 -0.3801971078 0.6835359335 0 0 0
14 1 2 0.0 -1.3325202465 0.0486467965 0.7252981067 0 0 0
15 1 3 0.0 -1.256940484 0.5048629045 0.610024333 0 0 0
16 1 1 0.0 -0.7669172287 -0.6939213872 -0.9237930179 -1 0 1
17 1 2 0.0 -0.6443192363 -0.275824219 -0.885453403 -1 0 1
18 1 3 0.0 -0.2502210438 -4.80161e-05 -0.912101388 -1 0 1
19 1 1 0.0 0.6668855548 -1.2790168524 -0.485121578 -1 0 1
20 1 2 0.0 0.7650672793 -0.9616282582 -0.8359069824 -1 0 1
21 1 3 0.0 0.6480968595 -0.7272875309 -1.215926528 -1 0 1
22 1 1 0.0 1.0500928164 0.3176556528 -0.9060189128 0 0 1
23 1 2 0.0 1.1869773865 0.5199055076 -1.2867683172 0 0 1
24 1 3 0.0 -1.422514677 0.4252676368 1.1547176838 1 0 0
25 1 1 0.0 1.1099920273 -0.0734142661 -0.2410190254 0 0 1
26 1 2 0.0 0.9254437089 -0.4262424111 0.0759388804 0 0 1
27 1 3 0.0 1.0109688044 -0.8781218529 0.2552606463 0 0 1
28 1 1 0.0 0.461630702 -1.0436012745 -0.0061020409 0 0 0
29 1 2 0.0 0.4804444611 -0.8494670987 0.4230041504 0 0 0
30 1 3 0.0 0.2384011596 -0.6176786423 0.7791891098 0 0 0
31 1 1 0.0 -0.7720956206 -0.2205404639 0.4355424643 0 1 0
32 1 2 0.0 -0.9807969332 0.1575802416 0.2488640547 0 1 0
33 1 3 0.0 -1.1849557161 0.371869117 -0.1790857911 0 1 0
34 1 1 0.0 0.4500811398 0.1976102889 1.0660396814 0 -1 -1
35 1 2 0.0 0.8962628841 0.0511058159 1.2399667501 0 -1 -1
36 1 3 0.0 1.1966621876 -0.0321215093 -1.2991244793 0 -1 0
37 1 1 0.0 0.9212739468 0.6600065827 1.1050571203 0 0 0
38 1 2 0.0 0.5845572948 0.9629337788 1.0223842859 0 0 0
39 1 3 0.0 0.1210465655 1.0324113369 0.7903045416 0 0 0
40 1 1 0.0 0.2156072557 -1.2957521677 0.6378216147 0 0 0
41 1 2 0.0 0.0321401246 1.3393671513 0.3307655156 0 -1 0
42 1 3 0.0 -0.0398840867 0.9743840694 0.1243915483 0 -1 0
43 1 1 0.0 0.2237446159 -0.9492241144 -0.8175654411 0 0 0
44 1 2 0.0 -0.1946493685 -1.1243079901 -0.7309914231 0 0 0
45 1 3 0.0 -0.592654705 -1.35082829 -0.9177882671 0 0 0
46 1 1 0.0 -0.4942112267 -0.7407169342 0.5346598625 1 0 0
47 1 2 0.0 -0.7631062269 -0.7103250623 0.8074242473 1 0 0
48 1 3 0.0 -0.8507338166 -0.6439331174 1.2090317011 1 0 0
49 1 1 0.0 -1.1161471605 -0.7580208182 -0.1381583661 0 1 0
50 1 2 0.0 -0.72296983 -0.7532596588 -0.0202620979 0 1 0
51 1 3 0.0 -0.2368910611 -0.7371567488 -0.1977449954 0 1 0
52 1 1 0.0 -0.819577992 0.0551605783 0.9594816566 0 1 0
53 1 2 0.0 -0.4589402378 0.2628076971 0.981708467 0 1 0
54 1 3 0.0 -0.0607885234 0.2792063653 0.916477263 0 1 0
55 1 1 0.0 1.1668126583 -0.4969500601 -0.9937261939 -1 0 1
56 1 2 0.0 1.1404143572 -0.5185260773 -1.3388471603 -1 0 1
57 1 3 0.0 1.0617301464 -0.7185084224 1.259611249 -1 0 0
58 1 1 0.0 1.2369347811 0.8138126135 -0.7862539887 -1 0 0
59 1 2 0.0 -1.3520311117 0.9826588035 -0.9721660018 0 0 0
60 1 3 0.0 -1.1771718264 1.3806340694 -1.0686683655 0 0 0
61 1 4 0.0 -1.4204611778 0.8345249295 -0.2882566154 1 0 0
62 1 2 0.0 -1.2381803989 0.9415024519 0.1803629249 1 0 0
63 1 6 0.0 -1.1465277672 1.1363301277 0.5301437974 1 0 0
64 1 2 0.0 -1.1533613205 -1.3551530838 0.8319134712 1 1 0
65 1 5 0.0 -1.3580775261 -1.0152232647 0.9914887547 1 1 0
66 1 4 0.0 0.7733161449 -0.248104468 -0.709802866 -1 0 0
67 1 2 0.0 0.5384246707 -0.0906234756 -0.3032278419 -1 0 0
68 1 6 0.0 0.5412875414 0.0541403107 0.0852169544 -1 0 0
69 1 2 0.0 0.7303120494 0.2100347877 0.4567237198 -1 0 0
70 1 5 0.0 1.0448980331 0.2984611392 0.8175022006 -1 0 0
71 1 4 0.0 -0.9424963593 0.8032942414 0.8476813436 0 -1 0
72 1 2 0.0 -0.7208251357 1.1501495838 0.9454900622 0 -1 0
73 1 6 0.0 -0.3630771935 -1.4142255783 0.9621773958 0 0 0
74 1 2 0.0 -0.0358543918 -1.169711709 1.0987235308 0 0 0
75 1 5 0.0 0.2987268865 -0.9534093142 1.3662228584 0 0 0
76 1 4 0.0 0.2176175714 0.5541675091 1.3000446558 0 0 -1
77 1 2 0.0 0.0665008575 0.8502007723 -1.1790480614 0 0 0
78 1 6 0.0 -0.047538016 1.1387560368 -0.7515200377 0 0 0
79 1 2 0.0 -0.1989590973 -1.4194812775 -0.2939046323 0 1 0
80 1 5 0.0 -0.3442571163 -1.1139937639 0.1525076479 0 1 0
81 1 4 0.0 0.749986589 -1.4064087868 0.5384970307 -1 1 0
82 1 2 0.0 1.275534749 -1.3599563837 0.376102984 -1 1 0
83 1 6 0.0 -1.1042064428 -1.3088120222 0.0704245642 0 1 0
84 1 2 0.0 -0.8721652627 -1.2618044615 -0.1870646924 0 1 0
85 1 5 0.0 -0.7720146179 -0.9936279058 -0.5665074587 0 1 0
86 1 4 0.0 0.4445958436 1.3083171844 -0.0842930973 0 0 0
87 1 2 0.0 0.3896411955 0.9700952768 -0.3869301677 0 0 0
88 1 6 0.0 0.2864130437 0.6903150082 -0.7203785777 0 0 0
89 1 2 0.0 0.1346895099 0.4070832729 -0.9607410431 0 0 0
90 1 5 0.0 -0.0257537514 0.0194178093 -1.3991464376 0 0 0
91 1 4 0.0 -0.1367406696 0.2626603544 -0.4934690297 0 0 0
92 1 2 0.0 0.106624566 0.444275856 -0.1889444739 0 0 0
93 1 6 0.0 0.3918151259 0.6609988809 0.0077055041 0 0 0
94 1 2 0.0 0.7142640948 0.8451395631 0.1870231628 0 0 0
95 1 5 0.0 1.0836126804 1.0645496845 0.1870454699 0 0 0
96 1 4 0.0 -0.0058981646 -0.7838485241 0.3896239698 0 0 0
97 1 2 0.0 -0.2885098159 -0.3673197627 0.1683208346 0 0 0
98 1 6 0.0 -0.5014980435 -0.0316596143 -0.1507239789 0 0 0
99 1 2 0.0 -0.6694710851 0.2631986439 -0.528347075 0 0 0
100 1 5 0.0 -0.8466875553 0.6372448206 -0.7783453465 0 0 0
101 1 4 0.0 0.2850285172 -0.7033658028 -0.356516242 0 0 0
102 1 2 0.0 0.3075327575 -0.4894252419 0.0357030481 0 0 0
103 1 6 0.0 0.2322861403 -0.2366862595 0.4035563171 0 0 0
104 1 2 0.0 0.1958041042 0.14516671 0.520966351 0 0 0
105 1 5 0.0 0.1381223798 0.6120968461 0.4565575421 0 0 0
106 1 4 0.0 1.3937813044 0.0212719124 -0.6477319598 -1 0 0
107 1 2 0.0 -1.2643742561 0.2426965237 -0.9444339275 0 0 0
108 1 6 0.0 -0.9633514285 0.4883780777 -1.3121545315 0 0 0
109 1 2 0.0 -0.6591168642 0.6946640015 1.2557353973 0 0 -1
110 1 5 0.0 -0.2768903375 0.8640236259 1.0481407642 0 0 -1
111 1 4 0.0 0.8185360432 -0.8212305903 -0.2994255126 -1 0 0
112 1 2 0.0 1.2687016726 -0.5938883424 -0.4512443542 -1 0 0
113 1 6 0.0 -1.2359786034 -0.4422894716 -0.7552855015 0 0 0
114 1 2 0.0 -1.1676945686 -0.2917646766 -1.0646195412 0 0 0
115 1 5 0.0 -1.1854618788 5.08528e-04 1.3639684916 0 0 -1
116 1 4 0.0 -1.3644318581 -0.9005718231 0.3802572191 -1 1 0
117 1 2 0.0 -0.9799828529 -1.0462248325 0.4517073333 -1 1 0
118 1 6 0.0 -0.6980054379 -1.3059499264 0.4771911204 -1 1 0
119 1 2 0.0 -0.5081810951 1.1901941299 0.4332177043 -1 0 0
120 1 5 0.0 -0.3920273483 0.792912662 0.5289429426 -1 0 0
121 1 4 0.0 -0.5868743062 -0.4772662818 -0.41806373 1 0 0
122 1 2 0.0 -0.1854984313 -0.5594652891 -0.7480665445 1 0 0
123 1 6 0.0 0.15965572 -0.4822042286 -1.1823662519 1 0 0
124 1 2 0.0 0.4990091026 -0.3828313947 1.1619929075 1 0 -1
125 1 5 0.0 0.7542625666 -0.1943390071 0.8018220067 1 0 -1
126 1 4 0.0 -0.1930192709 0.8838519454 -0.3611969352 0 0 0
127 1 2 0.0 -0.318038851 0.7155280709 -0.7702188492 0 0 0
128 1 6 0.0 -0.3708311021 0.5553555489 -1.0853580236 0 0 0
129 1 2 0.0 -0.504047811 0.2337041348 -1.3499952555 0 0 0
130 1 5 0.0 -0.6686487198 -0.2240441889 1.4041644335 0 0 -1
131 1 4 0.0 0.67872262 -0.1707684249 -1.1981526613 0 0 0
132 1 2 0.0 0.6156850457 0.3053231239 -1.2747911215 0 0 0
133 1 6 0.0 0.6649110913 0.7539975643 -1.2848420143 0 0 0
134 1 2 0.0 0.7136318088 1.2725325823 -1.390493989 0 0 0
135 1 5 0.0 0.8158611059 -1.1490712166 -1.4289116859 0 1 0
136 1 4 0.0 -1.426420331 -0.947815001 -0.7448740602 1 1 0
137 1 2 0.0 -1.2113602161 -1.3042858839 -0.576601088 1 1 0
138 1 6 0.0 -0.9781603813 1.1589457989 -0.5506974459 1 0 0
139 1 2 0.0 -0.7895068526 0.7840678096 -0.2685275972 1 0 0
140 1 5 0.0 -0.6160383821 0.4958068728 0.0084179603 1 0 0
141 1 4 0.0 0.9308813214 -1.3196617365 -0.0085429531 -1 0 0
142 1 2 0.0 0.8712405562 1.07649827 -0.2718837261 -1 -1 0
143 1 6 0.0 0.7737611532 0.5801099539 -0.5022791624 -1 -1 0
144 1 2 0.0 0.5700746179 0.2134296596 -0.7022732496 -1 -1 0
145 1 5 0.0 0.2531087697 -0.0583767779 -0.8468980789 -1 -1 0
146 1 4 0.0 -0.3634983003 1.1352375746 -1.3395903111 0 -1 0
147 1 2 0.0 0.1412416399 1.2759859562 1.2862586975 0 -1 -1
148 1 6 0.0 0.5228235722 -1.363286376 1.0679858923 0 0 -1
149 1 2 0.0 0.866930306 -1.0439066887 0.841544807 0 0 -1
150 1 5 0.0 1.17446208 -0.7055366635 0.7451245189 0 0 -1
151 1 4 0.0 0.8019979596 1.0188413858 -0.8028805852 0 -1 1
152 1 2 0.0 0.4505714178 1.242642045 -0.9262484908 0 -1 1
153 1 6 0.0 0.1432772726 -1.3727186918 -1.1320463419 0 0 1
154 1 2 0.0 -0.2351598889 -1.2072979212 -1.3140169382 0 0 1
155 1 5 0.0 -0.5188544393 -0.9998953938 1.4122098684 0 0 0
156 1 4 0.0 -1.1930142641 -0.8658928275 -1.1793458462 1 0 0
157 1 2 0.0 1.3795263767 -1.0809221268 -1.3569551706 0 0 0
158 1 6 0.0 1.1566290855 -1.4186800718 1.1465312243 0 0 -1
159 1 2 0.0 1.0774322748 1.1287781 0.8525671959 0 -1 -1
160 1 5 0.0 1.2143405676 0.7941566706 0.6378800869 0 -1 -1

Bonds

1 1 1 2
2 12 1 125
3 2 2 3
4 7 3 121
5 1 4 5
6 11 4 146
7 12 4 100
8 2 5 6
9 1 7 8
10 12 7 140
11 12 7 120
12 2 8 9
13 8 9 90
14 1 10 11
15 12 10 95
16 2 11 12
17 1 13 14
18 12 13 150
19 2 14 15
20 8 15 160
21 7 15 71
22 1 16 17
23 12 16 85
24 11 16 156
25 2 17 18
26 8 18 145
27 7 18 91
28 1 19 20
29 2 20 21
30 8 21 75
31 7 21 131
32 1 22 23
33 2 23 24
34 8 24 70
35 8 24 115
36 1 25 26
37 11 25 106
38 2 26 27
39 7 27 141
40 7 27 116
41 1 28 29
42 11 28 111
43 11 28 86
44 2 29 30
45 1 31 32
46 2 32 33
47 1 34 35
48 11 34 76
49 2 35 36
50 1 37 38
51 2 38 39
52 8 39 110
53 1 40 41
54 11 40 96
55 11 40 81
56 2 41 42
57 8 42 105
58 7 42 126
59 1 43 44
60 11 43 101
61 2 44 45
62 1 46 47
63 12 46 80
64 2 47 48
65 8 48 130
66 8 48 155
67 1 49 50
68 2 50 51
69 1 52 53
70 2 53 54
71 1 55 56
72 11 55 66
73 11 55 136
74 2 56 57
75 8 57 65
76 8 57 135
77 1 58 59
78 11 58 61
79 11 58 151
80 2 59 60
81 5 61 62
82 4 62 63
83 4 63 64
84 3 64 65
85 5 66 67
86 4 67 68
87 4 68 69
88 3 69 70
89 5 71 72
90 4 72 73
91 4 73 74
92 3 74 75
93 5 76 77
94 4 77 78
95 4 78 79
96 3 79 80
97 5 81 82
98 4 82 83
99 4 83 84
100 3 84 85
101 5 86 87
102 4 87 88
103 4 88 89
104 3 89 90
105 5 91 92
106 4 92 93
107 4 93 94
108 3 94 95
109 5 96 97
110 4 97 98
111 4 98 99
112 3 99 100
113 5 101 102
114 4 102 103
115 4 103 104
116 3 104 105
117 5 106 107
118 4 107 108
119 4 108 109
120 3 109 110
121 5 111 112
122 4 112 113
123 4 113 114
124 3 114 115
125 5 116 117
126 4 117 118
127 4 118 119
128 3 119 120
129 5 121 122
130 4 122 123
131 4 123 124
132 3 124 125
133 5 126 127
134 4 127 128
135 4 128 129
136 3 129 130
137 5 131 132
138 4 132 133
139 4 133 134
140 3 134 135
141 5 136 137
142 4 137 138
143 4 138 139
144 3 139 140
145 5 141 142
146 4 142 143
147 4 143 144
148 3 144 145
149 5 146 147
150 4 147 148
151 4 148 149
152 3 149 150
153 5 151 152
154 4 152 153
155 4 153 154
156 3 154 155
157 5 156 157
158 4 157 158
159 4 158 159
160 3 159 160
