# LAMMPS data file written by Ovito 3.0.0-dev349
160 atoms
160 bonds
6 atom types
12 bond types
-1.432685733 1.432685733 xlo xhi
-1.432685733 1.432685733 ylo yhi
-1.432685733 1.432685733 zlo zhi

Atoms # full

1 1 1 0.0 1.2003821135 -0.0968390033 0.3803347051 0 0 0
2 1 2 0.0 -1.2789525986 -0.3362924159 0.0740748271 1 0 0
3 1 3 0.0 -1.0875622034 -0.2864173055 -0.3281778097 1 0 0
4 1 1 0.0 -0.8543564081 0.8553457856 -1.1169830561 1 0 1
5 1 2 0.0 -1.1646505594 0.8461087942 1.3144079447 1 0 0
6 1 3 0.0 -1.3923025131 1.0082522631 0.9892276525 1 0 0
7 1 1 0.0 -0.2464304417 0.1986108869 0.4000043571 1 -1 0
8 1 2 0.0 -0.2139555216 -0.1098209843 0.7058586478 1 -1 0
9 1 3 0.0 0.0344197005 -0.2866727412 1.1424380541 1 -1 0
10 1 1 0.0 1.3585247993 1.2361937761 -0.1618177444 -1 -1 0
11 1 2 0.0 1.2309399843 1.4130243063 -0.4999768436 -1 -1 0
12 1 3 0.0 1.1748597622 -1.4147821665 -0.8736258149 -1 0 0
13 1 1 0.0 -1.3953815699 -0.4808116555 0.6633949876 0 0 0
14 1 2 0.0 -1.3173338175 -0.0574934967 0.7556648254 0 0 0
15 1 3 0.0 -1.3331935406 0.4063860476 0.593210578 0 0 0
16 1 1 0.0 -0.7548756003 -0.7443489432 -1.0090950727 -1 0 1
17 1 2 0.0 -0.5720671415 -0.3762917519 -1.0927633047 -1 0 1
18 1 3 0.0 -0.2449106574 -0.0324645825 -0.9223969579 -1 0 1
19 1 1 0.0 0.6337590814 -1.2274047136 -0.489382267 -1 0 1
20 1 2 0.0 0.7641568184 -0.9360594153 -0.8241560459 -1 0 1
21 1 3 0.0 0.6410304904 -0.6399896145 -1.2001334429 -1 0 1
22 1 1 0.0 1.0238021612 0.4103972912 -0.8720268011 0 0 1
23 1 2 0.0 1.2681697607 0.5742021799 -1.2489119768 0 0 1
24 1 3 0.0 1.3952955008 0.4337131381 1.1257801056 0 0 0
25 1 1 0.0 1.1491581202 -0.026148241 -0.0902375728 0 0 1
26 1 2 0.0 0.9804023504 -0.4384324849 0.0785554051 0 0 1
27 1 3 0.0 1.0798285007 -0.8540321589 0.2015717179 0 0 1
28 1 1 0.0 0.5845639706 -0.9447324276 0.0761353001 0 0 0
29 1 2 0.0 0.504750371 -0.7345500588 0.5041980147 0 0 0
30 1 3 0.0 0.2311647236 -0.6883329749 0.8634873033 0 0 0
31 1 1 0.0 -0.7857664227 -0.1805421114 0.5969488621 0 1 0
32 1 2 0.0 -1.0178871155 0.1171405986 0.3198620081 0 1 0
33 1 3 0.0 -1.2111179829 0.2488624007 -0.1117998809 0 1 0
34 1 1 0.0 0.3845102787 0.4531600475 0.998662591 0 -1 -1
35 1 2 0.0 0.5725297928 0.1212816015 1.0274152756 0 -1 -1
36 1 3 0.0 0.9704007506 -0.0579280853 1.2427177429 0 -1 -1
37 1 1 0.0 0.978895843 0.8188480735 1.0716516972 0 0 0
38 1 2 0.0 0.5165943503 0.9422715902 1.1029120684 0 0 0
39 1 3 0.0 0.0692415386 1.0203078985 0.8611728549 0 0 0
40 1 1 0.0 0.2810002267 -1.1643949747 0.5033383369 0 0 0
41 1 2 0.0 0.0419807918 1.401132226 0.4639354646 0 -1 0
42 1 3 0.0 0.0235050786 1.0588822365 0.2680399716 0 -1 0
43 1 1 0.0 0.2291146368 -0.9260587096 -0.8190746903 0 0 0
44 1 2 0.0 -0.2601967454 -1.1378786564 -0.7402915359 0 0 0
45 1 3 0.0 -0.6008265615 1.3862200975 -0.7923470736 0 -1 0
46 1 1 0.0 -0.256352365 -0.9951052666 0.6457396746 1 0 0
47 1 2 0.0 -0.5685813427 -0.7595385313 0.7005396485 1 0 0
48 1 3 0.0 -0.8468930721 -0.60593611 1.1216349602 1 0 0
49 1 1 0.0 -1.104008317 -0.8665180206 -0.0454039872 0 1 0
50 1 2 0.0 -0.5761237144 -0.7638822794 -0.055441156 0 1 0
51 1 3 0.0 -0.1507285535 -0.6468891501 -0.2629876435 0 1 0
52 1 1 0.0 -0.9228254557 0.2199091464 0.9981709123 0 1 0
53 1 2 0.0 -0.5439465642 0.3208477497 0.8897598982 0 1 0
54 1 3 0.0 -0.058380153 0.2961001396 0.9708300829 0 1 0
55 1 1 0.0 1.2021849155 -0.6739358306 -0.9549674988 -1 0 1
56 1 2 0.0 1.2112503052 -0.5336877704 -1.3213325739 -1 0 1
57 1 3 0.0 1.1745424271 -0.61347574 1.182546258 -1 0 0
58 1 1 0.0 1.2390633821 0.886762619 -0.7431094646 -1 0 0
59 1 2 0.0 -1.305098176 1.0608676672 -0.9974116683 0 0 0
60 1 3 0.0 -1.1527107954 1.3731813431 -1.325625062 0 0 0
61 1 4 0.0 1.4204922915 0.7258056998 -0.2721434236 0 0 0
62 1 2 0.0 -1.2004960775 0.8145087361 0.1763916016 1 0 0
63 1 6 0.0 -1.1278659105 1.1764895916 0.558812499 1 0 0
64 1 2 0.0 -1.1600693464 -1.3478734493 0.8232422471 1 1 0
65 1 5 0.0 -1.3332699537 -0.9299217463 0.9841800332 1 1 0
66 1 4 0.0 0.8655362725 -0.402762562 -0.7158462405 -1 0 0
67 1 2 0.0 0.7038373947 -0.1615764052 -0.3147493303 -1 0 0
68 1 6 0.0 0.6417649984 0.0464613773 0.0389558077 -1 0 0
69 1 2 0.0 0.7422223687 0.2412656546 0.4336452186 -1 0 0
70 1 5 0.0 0.9779159427 0.321030885 0.7701268792 -1 0 0
71 1 4 0.0 -0.9706721306 0.70179075 0.7952288985 0 -1 0
72 1 2 0.0 -0.6948229671 1.0872555971 0.9439524412 0 -1 0
73 1 6 0.0 -0.4121551216 -1.4016840458 1.0011382103 0 0 0
74 1 2 0.0 -0.0723502934 -1.0376149416 1.1506671906 0 0 0
75 1 5 0.0 0.2676004469 -0.847033143 1.3821023703 0 0 0
76 1 4 0.0 0.1663319767 0.7324424982 1.4207373857 0 0 -1
77 1 2 0.0 0.0639143735 1.0012329817 -1.071033597 0 0 0
78 1 6 0.0 -0.0113036055 1.27224648 -0.6411913633 0 0 0
79 1 2 0.0 -0.0110506751 -1.3652721643 -0.2232329845 0 1 0
80 1 5 0.0 -0.1077142656 -1.090708375 0.148945868 0 1 0
81 1 4 0.0 0.8386034369 -1.3022024632 0.44572258 -1 1 0
82 1 2 0.0 1.3213243484 -1.4277670383 0.3488973081 -1 1 0
83 1 6 0.0 -1.1014690399 1.3937346935 0.0909968317 0 0 0
84 1 2 0.0 -0.811316669 -1.2974095345 -0.2032007873 0 1 0
85 1 5 0.0 -0.7254853249 -0.9933095574 -0.585111618 0 1 0
86 1 4 0.0 0.4152091146 -1.4109766483 0.017212579 0 1 0
87 1 2 0.0 0.3319165707 1.0738503933 -0.2425406128 0 0 0
88 1 6 0.0 0.2598282695 0.7200784683 -0.5534467101 0 0 0
89 1 2 0.0 0.1165982187 0.4547552764 -0.9372698069 0 0 0
90 1 5 0.0 0.0454861596 0.0919876248 -1.3751784563 0 0 0
91 1 4 0.0 -0.2963356376 0.1723593473 -0.4582523108 0 0 0
92 1 2 0.0 -0.1143283173 0.375890553 -0.1500965655 0 0 0
93 1 6 0.0 0.1783480346 0.6144048572 0.0221231263 0 0 0
94 1 2 0.0 0.5625630617 0.8234952092 0.1693964601 0 0 0
95 1 5 0.0 0.9931254387 0.9963182807 0.0960418805 0 0 0
96 1 4 0.0 0.0288286302 -0.648930788 0.3849940896 0 0 0
97 1 2 0.0 -0.263173759 -0.3109790087 0.2034248561 0 0 0
98 1 6 0.0 -0.5914429426 -0.1430356205 -0.129803285 0 0 0
99 1 2 0.0 -0.8344159126 0.1760534495 -0.5168231726 0 0 0
100 1 5 0.0 -0.892064333 0.4876330495 -0.7457931638 0 0 0
101 1 4 0.0 0.3763395548 -0.6589632034 -0.3912298083 0 0 0
102 1 2 0.0 0.4070133269 -0.4811893106 0.0135004846 0 0 0
103 1 6 0.0 0.3398511112 -0.1972803771 0.4349136353 0 0 0
104 1 2 0.0 0.2827345133 0.2048151493 0.5369089246 0 0 0
105 1 5 0.0 0.1810109615 0.5903952122 0.5158882141 0 0 0
106 1 4 0.0 1.350900054 0.0209076218 -0.6242434978 -1 0 0
107 1 2 0.0 -1.2881594896 0.150289923 -1.0102738142 0 0 0
108 1 6 0.0 -1.0435290337 0.3265236914 -1.2573497295 0 0 0
109 1 2 0.0 -0.6600138545 0.5922241211 1.3008810282 0 0 -1
110 1 5 0.0 -0.3162901103 0.7922132015 1.0785681009 0 0 -1
111 1 4 0.0 0.9404841065 -0.7844807506 -0.2627173364 -1 0 0
112 1 2 0.0 1.3283140659 -0.6384406686 -0.4619740248 -1 0 0
113 1 6 0.0 -1.2249907255 -0.445181489 -0.8245792985 0 0 0
114 1 2 0.0 -1.1308709383 -0.3093556762 -1.2810345888 0 0 0
115 1 5 0.0 -1.3113185167 -0.0080257757 1.2549915314 0 0 -1
116 1 4 0.0 -1.3267792463 -0.933808744 0.4249713719 -1 1 0
117 1 2 0.0 -0.89867419 -1.0592367649 0.4730137587 -1 1 0
118 1 6 0.0 -0.6728180051 -1.371332407 0.5203099251 -1 1 0
119 1 2 0.0 -0.3899976909 1.0952482224 0.5525453687 -1 0 0
120 1 5 0.0 -0.320115298 0.667997241 0.5566556454 -1 0 0
121 1 4 0.0 -0.6155099273 -0.4437513947 -0.52720505 1 0 0
122 1 2 0.0 -0.2074965239 -0.5502096415 -0.7819523811 1 0 0
123 1 6 0.0 0.1576816887 -0.4148172736 -1.1628234386 1 0 0
124 1 2 0.0 0.5449751019 -0.3834096491 1.2386716604 1 0 -1
125 1 5 0.0 0.84176898 -0.279304415 0.8016807437 1 0 -1
126 1 4 0.0 -0.2196161598 0.9763253331 -0.1774502248 0 0 0
127 1 2 0.0 -0.3354720473 0.828014791 -0.6447407007 0 0 0
128 1 6 0.0 -0.4180377722 0.5816125274 -0.9996815324 0 0 0
129 1 2 0.0 -0.5491884947 0.2306533903 -1.2695538998 0 0 0
130 1 5 0.0 -0.6863120794 -0.1312193424 1.3218269348 0 0 -1
131 1 4 0.0 0.6146980524 -0.1265403777 -1.1506807804 0 0 0
132 1 2 0.0 0.6139358282 0.358915329 -1.1983113289 0 0 0
133 1 6 0.0 0.6700321436 0.86372298 -1.2752225399 0 0 0
134 1 2 0.0 0.7129075527 1.3246161938 -1.4209628105 0 0 0
135 1 5 0.0 0.8595982194 -1.0093108416 1.3046683073 0 1 -1
136 1 4 0.0 -1.2976185083 -1.034840107 -0.7615767717 1 1 0
137 1 2 0.0 -1.0984065533 -1.42374897 -0.6582622528 1 1 0
138 1 6 0.0 -1.0333764553 0.9894473553 -0.4918903708 1 0 0
139 1 2 0.0 -0.8806917071 0.6235096455 -0.2422421426 1 0 0
140 1 5 0.0 -0.6201351881 0.3895876408 0.0088150641 1 0 0
141 1 4 0.0 0.9662853479 -1.2969787121 -0.0468526669 -1 0 0
142 1 2 0.0 0.8467011452 1.1799080372 -0.3067702949 -1 -1 0
143 1 6 0.0 0.7815120816 0.7243521214 -0.459966749 -1 -1 0
144 1 2 0.0 0.6020080447 0.2917147279 -0.6004200578 -1 -1 0
145 1 5 0.0 0.2567187846 -0.0595252216 -0.7938635349 -1 -1 0
146 1 4 0.0 -0.4484290779 1.0606033802 -1.3253949881 0 -1 0
147 1 2 0.0 -0.0442745537 1.2528085709 1.289685607 0 -1 -1
148 1 6 0.0 0.3043231666 -1.3926820755 1.0698808432 0 0 -1
149 1 2 0.0 0.6224914789 -1.0835779905 0.8700878024 0 0 -1
150 1 5 0.0 1.0730316639 -0.8240343332 0.7367853522 0 0 -1
151 1 4 0.0 0.7451567054 1.1116598845 -0.8150585294 0 -1 1
152 1 2 0.0 0.4290858805 1.3391935825 -0.9522386193 0 -1 1
153 1 6 0.0 0.0396331325 -1.3435239792 -1.1336866617 0 0 1
154 1 2 0.0 -0.3740757108 -1.2036646605 -1.3304681778 0 0 1
155 1 5 0.0 -0.620544672 -1.0148870945 1.3236910105 0 0 0
156 1 4 0.0 -1.2014889717 -0.8371560574 -1.2627153397 1 0 0
157 1 2 0.0 1.3267766237 -1.1125258207 1.3958923817 0 0 -1
158 1 6 0.0 1.1047097445 -1.3389207125 1.0159318447 0 0 -1
159 1 2 0.0 1.0392686129 1.2057474852 0.7018288374 0 -1 -1
160 1 5 0.0 1.1747646332 0.8014181852 0.5903964043 0 -1 -1

Bonds

1 1 1 2
2 12 1 125
3 2 2 3
4 7 3 121
5 1 4 5
6 11 4 146
7 12 4 100
8 2 5 6
9 1 7 8
10 12 7 140
11 12 7 120
12 2 8 9
13 8 9 90
14 1 10 11
15 12 10 95
16 2 11 12
17 1 13 14
18 12 13 150
19 2 14 15
20 8 15 160
21 7 15 71
22 1 16 17
23 12 16 85
24 11 16 156
25 2 17 18
26 8 18 145
27 7 18 91
28 1 19 20
29 2 20 21
30 8 21 75
31 7 21 131
32 1 22 23
33 2 23 24
34 8 24 70
35 8 24 115
36 1 25 26
37 11 25 106
38 2 26 27
39 7 27 141
40 7 27 116
41 1 28 29
42 11 28 111
43 11 28 86
44 2 29 30
45 1 31 32
46 2 32 33
47 1 34 35
48 11 34 76
49 2 35 36
50 1 37 38
51 2 38 39
52 8 39 110
53 1 40 41
54 11 40 96
55 11 40 81
56 2 41 42
57 8 42 105
58 7 42 126
59 1 43 44
60 11 43 101
61 2 44 45
62 1 46 47
63 12 46 80
64 2 47 48
65 8 48 130
66 8 48 155
67 1 49 50
68 2 50 51
69 1 52 53
70 2 53 54
71 1 55 56
72 11 55 66
73 11 55 136
74 2 56 57
75 8 57 65
76 8 57 135
77 1 58 59
78 11 58 61
79 11 58 151
80 2 59 60
81 5 61 62
82 4 62 63
83 4 63 64
84 3 64 65
85 5 66 67
86 4 67 68
87 4 68 69
88 3 69 70
89 5 71 72
90 4 72 73
91 4 73 74
92 3 74 75
93 5 76 77
94 4 77 78
95 4 78 79
96 3 79 80
97 5 81 82
98 4 82 83
99 4 83 84
100 3 84 85
101 5 86 87
102 4 87 88
103 4 88 89
104 3 89 90
105 5 91 92
106 4 92 93
107 4 93 94
108 3 94 95
109 5 96 97
110 4 97 98
111 4 98 99
112 3 99 100
113 5 101 102
114 4 102 103
115 4 103 104
116 3 104 105
117 5 106 107
118 4 107 108
119 4 108 109
120 3 109 110
121 5 111 112
122 4 112 113
123 4 113 114
124 3 114 115
125 5 116 117
126 4 117 118
127 4 118 119
128 3 119 120
129 5 121 122
130 4 122 123
131 4 123 124
132 3 124 125
133 5 126 127
134 4 127 128
135 4 128 129
136 3 129 130
137 5 131 132
138 4 132 133
139 4 133 134
140 3 134 135
141 5 136 137
142 4 137 138
143 4 138 139
144 3 139 140
145 5 141 142
146 4 142 143
147 4 143 144
148 3 144 145
149 5 146 147
150 4 147 148
151 4 148 149
152 3 149 150
153 5 151 152
154 4 152 153
155 4 153 154
156 3 154 155
157 5 156 157
158 4 157 158
159 4 158 159
160 3 159 160
