# LAMMPS data file written by Ovito 3.0.0-dev349
160 atoms
160 bonds
6 atom types
12 bond types
-1.440175414 1.440175414 xlo xhi
-1.440175414 1.440175414 ylo yhi
-1.440175414 1.440175414 zlo zhi

Atoms # full

1 1 1 0.0 1.1148065329 -0.1270031035 0.4514507055 0 0 0
2 1 2 0.0 -1.3665504456 -0.2969716787 0.1738963723 1 0 0
3 1 3 0.0 -1.1134818792 -0.1842855513 -0.2424504906 1 0 0
4 1 1 0.0 -0.9315930009 0.9059273005 -1.1174051762 1 0 1
5 1 2 0.0 -1.307585001 0.8494198918 -1.3836071491 1 0 1
6 1 3 0.0 1.1396894455 1.0117843151 1.3777873516 0 0 0
7 1 1 0.0 -0.1365114599 0.0952792689 0.3610582948 1 -1 0
8 1 2 0.0 -0.1422464103 -0.1838514805 0.7373034954 1 -1 0
9 1 3 0.0 -0.0144280558 -0.2504213452 1.064519763 1 -1 0
10 1 1 0.0 1.2809677124 1.0350464582 0.1625913829 -1 -1 0
11 1 2 0.0 1.3655709028 1.3170171976 -0.3276362121 -1 -1 0
12 1 3 0.0 1.2131297588 1.4097857475 -0.7517334223 -1 -1 0
13 1 1 0.0 -1.2990922928 -0.4468565881 0.7077685595 0 0 0
14 1 2 0.0 -1.3358426094 0.0075649573 0.738132596 0 0 0
15 1 3 0.0 -1.2604779005 0.4983005822 0.6031458974 0 0 0
16 1 1 0.0 -0.8604100347 -0.7284824848 -0.9510771632 -1 0 1
17 1 2 0.0 -0.4811837375 -0.5618574619 -1.0975542068 -1 0 1
18 1 3 0.0 -0.2634193003 -0.2191447467 -1.1106718779 -1 0 1
19 1 1 0.0 0.6990845203 -1.344347477 -0.5846757889 -1 0 1
20 1 2 0.0 0.7592451572 -0.9684196711 -0.9255360365 -1 0 1
21 1 3 0.0 0.63046664 -0.717492342 -1.2132036686 -1 0 1
22 1 1 0.0 1.0825731754 0.4494200647 -0.8018023968 0 0 1
23 1 2 0.0 1.1406033039 0.5281710625 -1.2776520252 0 0 1
24 1 3 0.0 1.4047186375 0.4013269246 1.1716364622 0 0 0
25 1 1 0.0 1.2010524273 0.0746245161 -0.0735358074 0 0 1
26 1 2 0.0 1.0471746922 -0.3216795027 -0.030366417 0 0 1
27 1 3 0.0 1.1729009151 -0.8023742437 0.1531448811 0 0 1
28 1 1 0.0 0.6319912672 -0.9364145994 0.0888184756 0 0 0
29 1 2 0.0 0.5709928274 -0.7569716573 0.4749878645 0 0 0
30 1 3 0.0 0.3094731271 -0.7662221789 0.8638170958 0 0 0
31 1 1 0.0 -0.817327261 -0.1317422092 0.3833111525 0 1 0
32 1 2 0.0 -1.1639584303 0.2615589797 0.1252636015 0 1 0
33 1 3 0.0 1.2751995325 0.5241767168 0.1374141723 -1 1 0
34 1 1 0.0 0.4137264192 0.3845244348 1.1146395206 0 -1 -1
35 1 2 0.0 0.8590933084 0.2165364027 1.1963407993 0 -1 -1
36 1 3 0.0 1.0509706736 -0.0531167462 1.3455228806 0 -1 -1
37 1 1 0.0 0.8344681263 0.7068971992 1.0686398745 0 0 0
38 1 2 0.0 0.5259844661 1.0320811272 0.8457180858 0 0 0
39 1 3 0.0 0.0926345512 1.142593503 0.7979435921 0 0 0
40 1 1 0.0 0.2105352283 -1.242570281 0.5440438986 0 0 0
41 1 2 0.0 0.0150845749 1.3557116985 0.3703359663 0 -1 0
42 1 3 0.0 0.0575603582 0.9474138021 0.2202277929 0 -1 0
43 1 1 0.0 0.269405216 -0.914239049 -0.8303402662 0 0 0
44 1 2 0.0 -0.2376837134 -1.0659352541 -0.7140961885 0 0 0
45 1 3 0.0 -0.6432479024 -1.1648926735 -0.8264806271 0 0 0
46 1 1 0.0 -0.3442599475 -0.8634192348 0.6021732688 1 0 0
47 1 2 0.0 -0.6595658064 -0.7030848861 0.778061986 1 0 0
48 1 3 0.0 -0.8990200162 -0.6793120503 1.1291002035 1 0 0
49 1 1 0.0 -0.7194530964 -0.6970660686 0.09895055 0 1 0
50 1 2 0.0 -0.3499082029 -0.8695987463 -0.2070803195 0 1 0
51 1 3 0.0 0.085246928 -1.0332342386 -0.274084419 0 1 0
52 1 1 0.0 -0.9585288763 0.3338041604 1.0250784159 0 1 0
53 1 2 0.0 -0.5088647604 0.2465649843 0.9688844681 0 1 0
54 1 3 0.0 -0.1216766685 0.3992367983 0.9619212151 0 1 0
55 1 1 0.0 1.132515192 -0.6394209266 -0.9532386661 -1 0 1
56 1 2 0.0 1.1917587519 -0.5633717179 -1.332552433 -1 0 1
57 1 3 0.0 1.1285489798 -0.6824508905 1.1898579597 -1 0 0
58 1 1 0.0 1.402151227 0.9459356666 -0.9223278761 -1 0 0
59 1 2 0.0 -1.271017909 1.3179036379 -1.1664077044 0 0 0
60 1 3 0.0 -1.0402731895 -1.3621960878 1.3073967695 0 1 -1
61 1 4 0.0 -1.3412972689 0.7682440877 -0.4545362294 1 0 0
62 1 2 0.0 -1.1855729818 0.8772978783 -0.0512982681 1 0 0
63 1 6 0.0 -1.0903396606 1.0321948528 0.3699021637 1 0 0
64 1 2 0.0 -1.1850509644 1.37725389 0.6809864044 1 0 0
65 1 5 0.0 -1.3860776424 -1.0950407982 0.890802145 1 1 0
66 1 4 0.0 0.8241149783 -0.3565033972 -0.6911406517 -1 0 0
67 1 2 0.0 0.6846174002 -0.1061751917 -0.3824907839 -1 0 0
68 1 6 0.0 0.6747392416 0.1581064016 0.0097539909 -1 0 0
69 1 2 0.0 0.8557814956 0.326374352 0.4205804169 -1 0 0
70 1 5 0.0 1.0752928257 0.3596825898 0.7412592173 -1 0 0
71 1 4 0.0 -0.9560834169 0.8604748249 0.859793067 0 -1 0
72 1 2 0.0 -0.6904554367 1.1963237524 0.9740988016 0 -1 0
73 1 6 0.0 -0.3835626841 -1.3233456612 0.9755951762 0 0 0
74 1 2 0.0 -0.1045611352 -1.0866985321 1.0619705915 0 0 0
75 1 5 0.0 0.2305451632 -0.8882805705 1.3361648321 0 0 0
76 1 4 0.0 0.1389070153 0.6835751534 1.4320003986 0 0 -1
77 1 2 0.0 -0.0060853511 1.0158320665 -1.0518743992 0 0 0
78 1 6 0.0 -0.2188015431 1.2408764362 -0.6137028933 0 0 0
79 1 2 0.0 -0.3537042737 -1.4391881227 -0.2358081192 0 1 0
80 1 5 0.0 -0.3462158442 -1.1683255434 0.1882126033 0 1 0
81 1 4 0.0 0.7040610909 -1.4054635763 0.5276041627 -1 1 0
82 1 2 0.0 1.1647092104 -1.4050740004 0.4138337076 -1 1 0
83 1 6 0.0 -1.391273737 -1.3332664967 0.1855337024 0 1 0
84 1 2 0.0 -1.1164836884 -1.1179666519 -0.1329217553 0 1 0
85 1 5 0.0 -0.8780825734 -0.9093084931 -0.4786386788 0 1 0
86 1 4 0.0 0.4472419322 -1.4167759418 -0.0109235412 0 1 0
87 1 2 0.0 0.358446151 1.1079403162 -0.1994118243 0 0 0
88 1 6 0.0 0.2792979181 0.7701556087 -0.6029298902 0 0 0
89 1 2 0.0 0.1284003854 0.4367890656 -0.9896891713 0 0 0
90 1 5 0.0 0.0680483356 0.1106735989 -1.4323428869 0 0 0
91 1 4 0.0 -0.3531550765 -0.0146607142 -0.6354355812 0 0 0
92 1 2 0.0 -0.1760662943 0.2206098437 -0.2988798916 0 0 0
93 1 6 0.0 0.1320093423 0.4137989581 0.0023260608 0 0 0
94 1 2 0.0 0.485427767 0.6376037002 0.0844881311 0 0 0
95 1 5 0.0 0.8054884076 0.8381374478 0.1759450734 0 0 0
96 1 4 0.0 0.0642267391 -0.7928622365 0.3391478062 0 0 0
97 1 2 0.0 -0.2945924401 -0.400878638 0.1135413647 0 0 0
98 1 6 0.0 -0.5476492047 -0.137479201 -0.1189669296 0 0 0
99 1 2 0.0 -0.7750871181 0.2241681218 -0.5459715128 0 0 0
100 1 5 0.0 -0.8523666263 0.5301897526 -0.789023757 0 0 0
101 1 4 0.0 0.4413296282 -0.6615214944 -0.401155293 0 0 0
102 1 2 0.0 0.3563359976 -0.434666723 0.0670383498 0 0 0
103 1 6 0.0 0.4301779866 -0.2160303444 0.4210946858 0 0 0
104 1 2 0.0 0.3894430101 0.1469588727 0.6095964313 0 0 0
105 1 5 0.0 0.2205531746 0.5864937305 0.5685204268 0 0 0
106 1 4 0.0 -1.4356598854 0.1889257878 -0.5112467408 0 0 0
107 1 2 0.0 -1.2650561333 0.305188328 -0.9492705464 0 0 0
108 1 6 0.0 -0.9185401797 0.4541507661 -1.3186812401 0 0 0
109 1 2 0.0 -0.6071522236 0.6992913485 1.3125020266 0 0 -1
110 1 5 0.0 -0.2607535422 0.9317262769 1.0714418888 0 0 -1
111 1 4 0.0 0.9450959563 -0.75759691 -0.2832368314 -1 0 0
112 1 2 0.0 1.2997295856 -0.5362243056 -0.4609383941 -1 0 0
113 1 6 0.0 -1.2791923285 -0.3409469128 -0.7447275519 0 0 0
114 1 2 0.0 -1.1208338737 -0.2171571851 -1.0369733572 0 0 0
115 1 5 0.0 -1.2126233578 0.0107483398 -1.4397268295 0 0 0
116 1 4 0.0 -1.2445794344 -0.8948769569 0.3631010056 -1 1 0
117 1 2 0.0 -0.8782842755 -1.1168470383 0.514279902 -1 1 0
118 1 6 0.0 -0.6431937218 -1.425522089 0.5295501947 -1 1 0
119 1 2 0.0 -0.4159290791 1.0493245125 0.5004633069 -1 0 0
120 1 5 0.0 -0.2724038959 0.5751337409 0.4787902832 -1 0 0
121 1 4 0.0 -0.6726729274 -0.4354083836 -0.5217660069 1 0 0
122 1 2 0.0 -0.136279285 -0.5540453792 -0.7378294468 1 0 0
123 1 6 0.0 0.1768739372 -0.4594458938 -1.2288736105 1 0 0
124 1 2 0.0 0.4626957774 -0.3607405126 1.2438147068 1 0 -1
125 1 5 0.0 0.7649072409 -0.2892303169 0.8706148267 1 0 -1
126 1 4 0.0 -0.1518563032 0.8235155344 -0.2411664724 0 0 0
127 1 2 0.0 -0.2662231922 0.6603589654 -0.6784374714 0 0 0
128 1 6 0.0 -0.4071827829 0.4063597918 -1.049356699 0 0 0
129 1 2 0.0 -0.5140447617 0.1499681026 -1.3831971884 0 0 0
130 1 5 0.0 -0.7091869116 -0.2136627883 1.3066015244 0 0 -1
131 1 4 0.0 0.6524517536 -0.1832264215 -1.1541975737 0 0 0
132 1 2 0.0 0.6254418492 0.2794100642 -1.1701467037 0 0 0
133 1 6 0.0 0.6014662385 0.7789631486 -1.3117297888 0 0 0
134 1 2 0.0 0.657106638 1.3293170929 -1.4298404455 0 0 0
135 1 5 0.0 0.789621532 -1.0772644281 1.3579370975 0 1 -1
136 1 4 0.0 -1.3727264404 -0.9626704454 -0.7873656154 1 1 0
137 1 2 0.0 -1.1301356554 1.4247028828 -0.6165991426 1 0 0
138 1 6 0.0 -0.9183917642 1.0805870295 -0.46958372 1 0 0
139 1 2 0.0 -0.7505959272 0.6471243501 -0.2714397609 1 0 0
140 1 5 0.0 -0.5814731121 0.3132793307 0.1012744457 1 0 0
141 1 4 0.0 0.9702994823 -1.2981655598 -0.0730830058 -1 0 0
142 1 2 0.0 0.8879724145 1.1883050203 -0.2374850065 -1 -1 0
143 1 6 0.0 0.8138862848 0.7561499476 -0.4096184075 -1 -1 0
144 1 2 0.0 0.5842406154 0.3063746691 -0.6599652171 -1 -1 0
145 1 5 0.0 0.1965717971 -0.0808843523 -0.9066494703 -1 -1 0
146 1 4 0.0 -0.4681818485 1.1507301331 -1.2995551825 0 -1 0
147 1 2 0.0 -0.0551291034 1.3490788937 1.3296544552 0 -1 -1
148 1 6 0.0 0.3785913289 -1.3070417643 1.060909152 0 0 -1
149 1 2 0.0 0.7522363663 -1.0042239428 0.8794802427 0 0 -1
150 1 5 0.0 1.1311035156 -0.7482748032 0.7282188535 0 0 -1
151 1 4 0.0 0.8768469691 1.0643712282 -0.9220400453 0 -1 1
152 1 2 0.0 0.4502259493 1.257450223 -0.9372333288 0 -1 1
153 1 6 0.0 0.0556686111 -1.3631347418 -1.0849789381 0 0 1
154 1 2 0.0 -0.3264893591 -1.1772348881 -1.2649149895 0 0 1
155 1 5 0.0 -0.6402546763 -1.0566161871 -1.4285545349 0 0 1
156 1 4 0.0 -1.2695958614 -0.8684124947 -1.2816352844 1 0 0
157 1 2 0.0 1.3426374197 -1.1680318117 1.3670853376 0 0 -1
158 1 6 0.0 1.1661816835 1.4275650978 1.0666692257 0 -1 -1
159 1 2 0.0 1.1327637434 1.1709631681 0.8636552691 0 -1 -1
160 1 5 0.0 1.2607059479 0.8705655336 0.6854792237 0 -1 -1

Bonds

1 1 1 2
2 12 1 125
3 2 2 3
4 7 3 121
5 1 4 5
6 11 4 146
7 12 4 100
8 2 5 6
9 1 7 8
10 12 7 140
11 12 7 120
12 2 8 9
13 8 9 90
14 1 10 11
15 12 10 95
16 2 11 12
17 1 13 14
18 12 13 150
19 2 14 15
20 8 15 160
21 7 15 71
22 1 16 17
23 12 16 85
24 11 16 156
25 2 17 18
26 8 18 145
27 7 18 91
28 1 19 20
29 2 20 21
30 8 21 75
31 7 21 131
32 1 22 23
33 2 23 24
34 8 24 70
35 8 24 115
36 1 25 26
37 11 25 106
38 2 26 27
39 7 27 141
40 7 27 116
41 1 28 29
42 11 28 111
43 11 28 86
44 2 29 30
45 1 31 32
46 2 32 33
47 1 34 35
48 11 34 76
49 2 35 36
50 1 37 38
51 2 38 39
52 8 39 110
53 1 40 41
54 11 40 96
55 11 40 81
56 2 41 42
57 8 42 105
58 7 42 126
59 1 43 44
60 11 43 101
61 2 44 45
62 1 46 47
63 12 46 80
64 2 47 48
65 8 48 130
66 8 48 155
67 1 49 50
68 2 50 51
69 1 52 53
70 2 53 54
71 1 55 56
72 11 55 66
73 11 55 136
74 2 56 57
75 8 57 65
76 8 57 135
77 1 58 59
78 11 58 61
79 11 58 151
80 2 59 60
81 5 61 62
82 4 62 63
83 4 63 64
84 3 64 65
85 5 66 67
86 4 67 68
87 4 68 69
88 3 69 70
89 5 71 72
90 4 72 73
91 4 73 74
92 3 74 75
93 5 76 77
94 4 77 78
95 4 78 79
96 3 79 80
97 5 81 82
98 4 82 83
99 4 83 84
100 3 84 85
101 5 86 87
102 4 87 88
103 4 88 89
104 3 89 90
105 5 91 92
106 4 92 93
107 4 93 94
108 3 94 95
109 5 96 97
110 4 97 98
111 4 98 99
112 3 99 100
113 5 101 102
114 4 102 103
115 4 103 104
116 3 104 105
117 5 106 107
118 4 107 108
119 4 108 109
120 3 109 110
121 5 111 112
122 4 112 113
123 4 113 114
124 3 114 115
125 5 116 117
126 4 117 118
127 4 118 119
128 3 119 120
129 5 121 122
130 4 122 123
131 4 123 124
132 3 124 125
133 5 126 127
134 4 127 128
135 4 128 129
136 3 129 130
137 5 131 132
138 4 132 133
139 4 133 134
140 3 134 135
141 5 136 137
142 4 137 138
143 4 138 139
144 3 139 140
145 5 141 142
146 4 142 143
147 4 143 144
148 3 144 145
149 5 146 147
150 4 147 148
151 4 148 149
152 3 149 150
153 5 151 152
154 4 152 153
155 4 153 154
156 3 154 155
157 5 156 157
158 4 157 158
159 4 158 159
160 3 159 160
