# LAMMPS data file written by Ovito 3.0.0-dev349
160 atoms
160 bonds
6 atom types
12 bond types
-1.4282308815 1.4282308815 xlo xhi
-1.4282308815 1.4282308815 ylo yhi
-1.4282308815 1.4282308815 zlo zhi

Atoms # full

1 1 1 0.0 1.1478857994 -0.0952084139 0.4567314088 0 0 0
2 1 2 0.0 -1.240850091 -0.2647244334 0.2862416506 1 0 0
3 1 3 0.0 -0.9412949681 -0.5986440778 0.0074728848 1 0 0
4 1 1 0.0 -0.8834317923 0.9495531917 -1.1268481016 1 0 1
5 1 2 0.0 -1.2372229099 0.9110785723 1.3174622059 1 0 0
6 1 3 0.0 -1.4086871147 1.0206662416 0.9787922502 1 0 0
7 1 1 0.0 -0.2246409506 0.2636715174 0.2985278368 1 -1 0
8 1 2 0.0 -0.2652716041 -0.1258739829 0.6295533776 1 -1 0
9 1 3 0.0 -0.0662733912 -0.3214799762 1.1565663815 1 -1 0
10 1 1 0.0 1.4001281261 1.175134778 0.0946583003 -1 -1 0
11 1 2 0.0 1.3526061773 1.4138063192 -0.2858745158 -1 -1 0
12 1 3 0.0 1.093069315 -1.1740101576 -0.5047046542 -1 0 0
13 1 1 0.0 1.3569597006 -0.4256078303 0.8518798351 -1 0 0
14 1 2 0.0 -1.3982914686 0.0547986962 0.8468334675 0 0 0
15 1 3 0.0 -1.2261887789 0.3825244904 0.6043602824 0 0 0
16 1 1 0.0 -0.8204719424 -0.8186424375 -1.0392671824 -1 0 1
17 1 2 0.0 -0.5261375904 -0.5835030675 -1.1470592022 -1 0 1
18 1 3 0.0 -0.326562345 -0.1883077472 -1.0411678553 -1 0 1
19 1 1 0.0 0.5767626762 -1.1960260868 -0.5293143392 -1 0 1
20 1 2 0.0 0.6693169475 -0.9034558535 -0.8185667992 -1 0 1
21 1 3 0.0 0.6179371476 -0.6856213808 -1.1742217541 -1 0 1
22 1 1 0.0 1.1483902931 0.5655811429 -0.8450434208 0 0 1
23 1 2 0.0 1.2207342386 0.6306784153 -1.2118674517 0 0 1
24 1 3 0.0 1.3970813751 0.4575335085 1.2321488857 0 0 0
25 1 1 0.0 1.2116638422 -0.0231221225 -0.150212273 0 0 1
26 1 2 0.0 1.0178734064 -0.3891432583 0.0304168072 0 0 1
27 1 3 0.0 1.0781615973 -0.777806282 0.2523846626 0 0 1
28 1 1 0.0 0.5422121882 -0.927909255 0.1066875234 0 0 0
29 1 2 0.0 0.5346726775 -0.6848123074 0.4617493451 0 0 0
30 1 3 0.0 0.3419131339 -0.6012890339 0.7527380586 0 0 0
31 1 1 0.0 -0.8383306861 0.1489038467 0.3929145932 0 1 0
32 1 2 0.0 -1.2449060678 0.2522808313 0.0729243904 0 1 0
33 1 3 0.0 1.2053165436 0.4720585048 0.0338352323 -1 1 0
34 1 1 0.0 0.3565738499 0.5712087154 1.0100191832 0 -1 -1
35 1 2 0.0 0.5896746516 0.2022527754 1.1460299492 0 -1 -1
36 1 3 0.0 1.0426090956 0.0288099609 1.2949222326 0 -1 -1
37 1 1 0.0 0.975835681 0.8325679302 1.1946009398 0 0 0
38 1 2 0.0 0.5877628922 1.0837402344 1.0607670546 0 0 0
39 1 3 0.0 0.1079823375 1.1312309504 0.8055419326 0 0 0
40 1 1 0.0 0.3090327382 -1.1815233231 0.547663033 0 0 0
41 1 2 0.0 0.1163000837 1.3341892958 0.3877020776 0 -1 0
42 1 3 0.0 0.1474962384 0.9283432961 0.2218691856 0 -1 0
43 1 1 0.0 0.0916990191 -0.9302169681 -0.8812146187 0 0 0
44 1 2 0.0 -0.3235796392 -1.0460423231 -0.8432836533 0 0 0
45 1 3 0.0 -0.6188486218 -1.3469438553 -0.859185338 0 0 0
46 1 1 0.0 -0.1850563884 -1.1413308382 0.6224690676 1 0 0
47 1 2 0.0 -0.4366141856 -0.8062289953 0.6863982081 1 0 0
48 1 3 0.0 -0.7477890253 -0.6362285614 0.8880378604 1 0 0
49 1 1 0.0 -0.4979360104 -0.8660730124 0.1695736647 0 1 0
50 1 2 0.0 -0.2317446023 -1.0237823725 -0.2392271459 0 1 0
51 1 3 0.0 0.0705866367 -1.368996501 -0.4833754003 0 1 0
52 1 1 0.0 -0.8911287189 0.2409893274 0.9683881998 0 1 0
53 1 2 0.0 -0.5554018021 0.3927571476 0.8174965382 0 1 0
54 1 3 0.0 -0.081932947 0.353892684 0.8211486936 0 1 0
55 1 1 0.0 1.0938878059 -0.6583585143 -0.9575299621 -1 0 1
56 1 2 0.0 1.1296578646 -0.5920770764 -1.2655795813 -1 0 1
57 1 3 0.0 1.1145149469 -0.6741759181 1.2819074392 -1 0 0
58 1 1 0.0 -1.3921583891 1.007273078 -0.7860622406 0 0 0
59 1 2 0.0 -1.2431367636 1.3119817972 -1.1296931505 0 0 0
60 1 3 0.0 -0.9486818314 -1.3865208626 -1.4200761318 0 1 0
61 1 4 0.0 -1.233191371 0.8657616973 -0.2873386145 1 0 0
62 1 2 0.0 -1.0453158617 0.895093441 0.0820833594 1 0 0
63 1 6 0.0 -0.9968907237 1.1134411097 0.4670563042 1 0 0
64 1 2 0.0 -1.0992869139 -1.3494799137 0.7467884421 1 1 0
65 1 5 0.0 -1.3337905407 -0.9609745145 0.9350389242 1 1 0
66 1 4 0.0 0.758108139 -0.410812676 -0.6583728194 -1 0 0
67 1 2 0.0 0.6226838231 -0.1420474201 -0.2812843323 -1 0 0
68 1 6 0.0 0.6160924435 0.0461758375 0.0774208307 -1 0 0
69 1 2 0.0 0.7667042017 0.2111652941 0.4640576541 -1 0 0
70 1 5 0.0 1.0456935167 0.3703818917 0.8544967175 -1 0 0
71 1 4 0.0 -0.9308379292 0.7792206407 0.8306862116 0 -1 0
72 1 2 0.0 -0.774494648 1.1370953321 0.9800303578 0 -1 0
73 1 6 0.0 -0.5027645826 -1.4007287025 1.0554929972 0 0 0
74 1 2 0.0 -0.1214855611 -1.0373748541 1.1325823069 0 0 0
75 1 5 0.0 0.2787850797 -0.8363969326 1.3693701029 0 0 0
76 1 4 0.0 0.1175832078 0.7236886024 1.381382823 0 0 -1
77 1 2 0.0 -0.0930466875 0.8981096148 -1.0932132006 0 0 0
78 1 6 0.0 -0.2586263716 1.0920168161 -0.6488288045 0 0 0
79 1 2 0.0 -0.3328643143 1.2759159803 -0.2520831525 0 0 0
80 1 5 0.0 -0.327993542 -1.3838865757 0.1485488713 0 1 0
81 1 4 0.0 0.8263369203 -1.1905398369 0.4536918104 -1 1 0
82 1 2 0.0 1.2515845299 -1.2628691196 0.3883152306 -1 1 0
83 1 6 0.0 -1.1999787092 -1.244466424 0.1368573457 0 1 0
84 1 2 0.0 -0.9436992407 -1.1384148598 -0.1630034447 0 1 0
85 1 5 0.0 -0.8429337144 -0.9407997727 -0.5439964533 0 1 0
86 1 4 0.0 0.4304228425 -1.3956773281 -0.086310491 0 1 0
87 1 2 0.0 0.3342726231 1.0375752449 -0.3059653044 0 0 0
88 1 6 0.0 0.2680761516 0.750954926 -0.6713296175 0 0 0
89 1 2 0.0 0.1932303905 0.4450911283 -1.0103421211 0 0 0
90 1 5 0.0 0.0977744833 0.0747923031 -1.3450616598 0 0 0
91 1 4 0.0 -0.3074119389 -0.0080334861 -0.4978853166 0 0 0
92 1 2 0.0 -0.1196053252 0.1445399076 -0.2569171786 0 0 0
93 1 6 0.0 0.2351052463 0.3926917017 -0.0546125397 0 0 0
94 1 2 0.0 0.5465313196 0.6437711716 0.0613762885 0 0 0
95 1 5 0.0 0.9466263652 0.9205724001 0.1531369388 0 0 0
96 1 4 0.0 0.0101312771 -0.7302191257 0.3690628111 0 0 0
97 1 2 0.0 -0.3880796134 -0.3687653244 0.1915828735 0 0 0
98 1 6 0.0 -0.6780061126 -0.0779558048 -0.0496208705 0 0 0
99 1 2 0.0 -0.8571713567 0.2073560357 -0.3896191716 0 0 0
100 1 5 0.0 -0.9186356664 0.6197960377 -0.6980587244 0 0 0
101 1 4 0.0 0.1966457069 -0.776458621 -0.40558815 0 0 0
102 1 2 0.0 0.165499121 -0.5586701632 -0.0837117881 0 0 0
103 1 6 0.0 0.2236517519 -0.2627592683 0.2522574663 0 0 0
104 1 2 0.0 0.2299654782 0.0962179303 0.4975566268 0 0 0
105 1 5 0.0 0.2456779927 0.5262534022 0.4565627873 0 0 0
106 1 4 0.0 1.3816257715 0.1487842053 -0.6115267277 -1 0 0
107 1 2 0.0 -1.237293601 0.2578798532 -0.9578379989 0 0 0
108 1 6 0.0 -0.9036310315 0.4327327609 -1.2732226849 0 0 0
109 1 2 0.0 -0.6390587091 0.6518030167 1.3014698029 0 0 -1
110 1 5 0.0 -0.2774490714 0.8502697945 1.0465328693 0 0 -1
111 1 4 0.0 0.8569247723 -0.7664846778 -0.2477300465 -1 0 0
112 1 2 0.0 1.2441995144 -0.6141479015 -0.466471225 -1 0 0
113 1 6 0.0 -1.302229166 -0.5632696748 -0.7119743824 0 0 0
114 1 2 0.0 -1.1560807228 -0.3359392583 -1.0767611265 0 0 0
115 1 5 0.0 -1.2051452398 0.0242006294 1.3816856146 0 0 -1
116 1 4 0.0 -1.2690219879 -0.8032266498 0.4035200775 -1 1 0
117 1 2 0.0 -0.9148061872 -0.9982051849 0.4781059325 -1 1 0
118 1 6 0.0 -0.6553347111 -1.2950174809 0.5246552825 -1 1 0
119 1 2 0.0 -0.4351625443 1.1177943945 0.5461996198 -1 0 0
120 1 5 0.0 -0.2636673152 0.715400219 0.4806454778 -1 0 0
121 1 4 0.0 -0.4641274512 -0.4948217869 -0.3200552166 1 0 0
122 1 2 0.0 -0.1620504111 -0.5163397193 -0.6718541384 1 0 0
123 1 6 0.0 0.1083583236 -0.4670938551 -1.1172457933 1 0 0
124 1 2 0.0 0.4527685344 -0.3976651728 1.2510027885 1 0 -1
125 1 5 0.0 0.8851490617 -0.2312081605 0.8866882324 1 0 -1
126 1 4 0.0 -0.1167746857 0.7496749759 -0.2556756735 0 0 0
127 1 2 0.0 -0.3025254011 0.5875689983 -0.6667992473 0 0 0
128 1 6 0.0 -0.3765946031 0.3836085498 -1.1319977045 0 0 0
129 1 2 0.0 -0.4507983923 0.1342966259 1.3930511475 0 0 -1
130 1 5 0.0 -0.5835617185 -0.2095314711 1.0903192759 0 0 -1
131 1 4 0.0 0.6272854209 -0.158007443 -1.1266703606 0 0 0
132 1 2 0.0 0.6718197465 0.3700712025 -1.1937735081 0 0 0
133 1 6 0.0 0.637928009 0.8240743876 -1.1980901957 0 0 0
134 1 2 0.0 0.6715186238 1.338704586 -1.3489238024 0 0 0
135 1 5 0.0 0.811448276 -1.1127151251 1.3910748959 0 1 -1
136 1 4 0.0 -1.3561776876 -1.0266846418 -0.8051891327 1 1 0
137 1 2 0.0 -1.1463104486 -1.3676921129 -0.6305762529 1 1 0
138 1 6 0.0 -0.8466062546 1.1252659559 -0.4764546156 1 0 0
139 1 2 0.0 -0.6902199388 0.8054480553 -0.2937287688 1 0 0
140 1 5 0.0 -0.5274841189 0.4516267478 -0.026562674 1 0 0
141 1 4 0.0 0.9880328178 -1.1951775551 -0.023420142 -1 0 0
142 1 2 0.0 0.8533264399 1.1580942869 -0.2966268659 -1 -1 0
143 1 6 0.0 0.7321972847 0.695548296 -0.4400365055 -1 -1 0
144 1 2 0.0 0.4906818271 0.2813901007 -0.5657467246 -1 -1 0
145 1 5 0.0 0.159748137 -0.02519859 -0.814063549 -1 -1 0
146 1 4 0.0 -0.4414297044 1.1536223888 -1.2757534981 0 -1 0
147 1 2 0.0 -0.0310917385 1.2959541082 1.3519237041 0 -1 -1
148 1 6 0.0 0.3594480753 -1.2949140072 1.0889825821 0 0 -1
149 1 2 0.0 0.6988837123 -1.0320806503 0.9024348855 0 0 -1
150 1 5 0.0 1.0056375265 -0.7634955049 0.8210008144 0 0 -1
151 1 4 0.0 0.9466484785 1.1330746412 -0.8173683882 0 -1 1
152 1 2 0.0 0.4502741098 1.2387187481 -0.8590493202 0 -1 1
153 1 6 0.0 0.0090323361 -1.4264974594 -1.0317853689 0 0 1
154 1 2 0.0 -0.4219686687 -1.1547300816 -1.2899366617 0 0 1
155 1 5 0.0 -0.6883268356 -0.900639534 1.2734204531 0 0 0
156 1 4 0.0 -1.2718498707 -0.9792425632 -1.3820039034 1 0 0
157 1 2 0.0 1.2835124731 -1.1834539175 1.2966010571 0 0 -1
158 1 6 0.0 1.0190839767 -1.4197354317 0.9833096862 0 0 -1
159 1 2 0.0 1.0149878263 1.1197841167 0.6774231195 0 -1 -1
160 1 5 0.0 1.274789691 0.7607344985 0.5646195412 0 -1 -1

Bonds

1 1 1 2
2 12 1 125
3 2 2 3
4 7 3 121
5 1 4 5
6 11 4 146
7 12 4 100
8 2 5 6
9 1 7 8
10 12 7 140
11 12 7 120
12 2 8 9
13 8 9 90
14 1 10 11
15 12 10 95
16 2 11 12
17 1 13 14
18 12 13 150
19 2 14 15
20 8 15 160
21 7 15 71
22 1 16 17
23 12 16 85
24 11 16 156
25 2 17 18
26 8 18 145
27 7 18 91
28 1 19 20
29 2 20 21
30 8 21 75
31 7 21 131
32 1 22 23
33 2 23 24
34 8 24 70
35 8 24 115
36 1 25 26
37 11 25 106
38 2 26 27
39 7 27 141
40 7 27 116
41 1 28 29
42 11 28 111
43 11 28 86
44 2 29 30
45 1 31 32
46 2 32 33
47 1 34 35
48 11 34 76
49 2 35 36
50 1 37 38
51 2 38 39
52 8 39 110
53 1 40 41
54 11 40 96
55 11 40 81
56 2 41 42
57 8 42 105
58 7 42 126
59 1 43 44
60 11 43 101
61 2 44 45
62 1 46 47
63 12 46 80
64 2 47 48
65 8 48 130
66 8 48 155
67 1 49 50
68 2 50 51
69 1 52 53
70 2 53 54
71 1 55 56
72 11 55 66
73 11 55 136
74 2 56 57
75 8 57 65
76 8 57 135
77 1 58 59
78 11 58 61
79 11 58 151
80 2 59 60
81 5 61 62
82 4 62 63
83 4 63 64
84 3 64 65
85 5 66 67
86 4 67 68
87 4 68 69
88 3 69 70
89 5 71 72
90 4 72 73
91 4 73 74
92 3 74 75
93 5 76 77
94 4 77 78
95 4 78 79
96 3 79 80
97 5 81 82
98 4 82 83
99 4 83 84
100 3 84 85
101 5 86 87
102 4 87 88
103 4 88 89
104 3 89 90
105 5 91 92
106 4 92 93
107 4 93 94
108 3 94 95
109 5 96 97
110 4 97 98
111 4 98 99
112 3 99 100
113 5 101 102
114 4 102 103
115 4 103 104
116 3 104 105
117 5 106 107
118 4 107 108
119 4 108 109
120 3 109 110
121 5 111 112
122 4 112 113
123 4 113 114
124 3 114 115
125 5 116 117
126 4 117 118
127 4 118 119
128 3 119 120
129 5 121 122
130 4 122 123
131 4 123 124
132 3 124 125
133 5 126 127
134 4 127 128
135 4 128 129
136 3 129 130
137 5 131 132
138 4 132 133
139 4 133 134
140 3 134 135
141 5 136 137
142 4 137 138
143 4 138 139
144 3 139 140
145 5 141 142
146 4 142 143
147 4 143 144
148 3 144 145
149 5 146 147
150 4 147 148
151 4 148 149
152 3 149 150
153 5 151 152
154 4 152 153
155 4 153 154
156 3 154 155
157 5 156 157
158 4 157 158
159 4 158 159
160 3 159 160
