# LAMMPS data file written by Ovito 3.0.0-dev349
160 atoms
160 bonds
6 atom types
12 bond types
-1.4296664 1.4296664 xlo xhi
-1.4296664 1.4296664 ylo yhi
-1.4296664 1.4296664 zlo zhi

Atoms # full

1 1 1 0.0 1.1361299753 -0.0459444597 0.3852572441 0 0 0
2 1 2 0.0 -1.2269957066 -0.2304088622 0.129120931 1 0 0
3 1 3 0.0 -0.8665524721 -0.6198596954 -0.1251091212 1 0 0
4 1 1 0.0 -0.8903972507 0.9285150766 -1.083321929 1 0 1
5 1 2 0.0 -1.2500085831 0.9461402297 1.337420702 1 0 0
6 1 3 0.0 -1.3613433838 1.1106942892 0.9526600242 1 0 0
7 1 1 0.0 -0.2535302639 0.2654013038 0.3324132264 1 -1 0
8 1 2 0.0 -0.2917779088 -0.0830421895 0.7202781439 1 -1 0
9 1 3 0.0 -0.1392757893 -0.1930362731 1.0882484913 1 -1 0
10 1 1 0.0 1.2932248116 1.094594121 0.2032001466 -1 -1 0
11 1 2 0.0 1.4089961052 1.3301285505 -0.2427901328 -1 -1 0
12 1 3 0.0 1.2134686708 -1.2977297306 -0.5217342377 -1 0 0
13 1 1 0.0 1.3716367483 -0.469355911 0.6921858191 -1 0 0
14 1 2 0.0 1.4109876156 -0.0406917743 0.8251472116 -1 0 0
15 1 3 0.0 -1.3811283112 0.4542435408 0.6489309669 0 0 0
16 1 1 0.0 -0.735530436 -0.8915273547 -0.9721742272 -1 0 1
17 1 2 0.0 -0.5352501273 -0.5770899057 -1.1096060276 -1 0 1
18 1 3 0.0 -0.3754999638 -0.1493403018 -1.0013006926 -1 0 1
19 1 1 0.0 0.697955668 -1.2982827425 -0.5507454872 -1 0 1
20 1 2 0.0 0.8137556911 -0.9190336466 -0.7778893709 -1 0 1
21 1 3 0.0 0.6786327958 -0.5739723444 -1.133792758 -1 0 1
22 1 1 0.0 1.009577632 0.6284688711 -0.9235684872 0 0 1
23 1 2 0.0 1.1764315367 0.5968435407 -1.3837891817 0 0 1
24 1 3 0.0 1.3196783066 0.3992815614 1.1855765581 0 0 0
25 1 1 0.0 1.1165231466 0.0509011596 -0.1403703541 0 0 1
26 1 2 0.0 1.0382421017 -0.3465080857 -0.0415847562 0 0 1
27 1 3 0.0 1.139755249 -0.7562119961 0.2238139361 0 0 1
28 1 1 0.0 0.5799865723 -0.9922525883 0.039859686 0 0 0
29 1 2 0.0 0.509593308 -0.7242841721 0.4536454678 0 0 0
30 1 3 0.0 0.2318686545 -0.5372765064 0.7937484384 0 0 0
31 1 1 0.0 -0.8743981123 0.2131067514 0.430211097 0 1 0
32 1 2 0.0 -1.2315522432 0.3420830369 0.1033268869 0 1 0
33 1 3 0.0 1.2142288685 0.6031922102 0.0310343225 -1 1 0
34 1 1 0.0 0.4333837628 0.293497026 1.1528891325 0 -1 -1
35 1 2 0.0 0.8704867363 0.0472561605 1.3113101721 0 -1 -1
36 1 3 0.0 1.1629636288 -0.0665942356 -1.1536159515 0 -1 0
37 1 1 0.0 0.7823637724 0.7390469313 1.1704463959 0 0 0
38 1 2 0.0 0.4236696661 0.8671820164 0.9158377051 0 0 0
39 1 3 0.0 -0.0064118402 1.1286325455 0.8570341468 0 0 0
40 1 1 0.0 0.3486705422 -1.259971261 0.4643062949 0 0 0
41 1 2 0.0 0.2787676454 1.250089407 0.4254919291 0 -1 0
42 1 3 0.0 -0.0085138287 0.9312885404 0.3210214078 0 -1 0
43 1 1 0.0 0.2524144053 -0.9132088423 -0.8457250595 0 0 0
44 1 2 0.0 -0.1885178238 -0.9816664457 -0.7800053358 0 0 0
45 1 3 0.0 -0.5298786759 -1.3585546017 -0.7606919408 0 0 0
46 1 1 0.0 -0.1529272199 -1.1861151457 0.5953522325 1 0 0
47 1 2 0.0 -0.4531418383 -0.8742423654 0.723809123 1 0 0
48 1 3 0.0 -0.7534606457 -0.7278782129 1.0443888903 1 0 0
49 1 1 0.0 -0.4660929739 -0.9766773582 0.0265885293 0 1 0
50 1 2 0.0 -0.2173714191 -1.0023043156 -0.2446206212 0 1 0
51 1 3 0.0 0.1046292558 -1.2682266235 -0.4709541798 0 1 0
52 1 1 0.0 -1.0098962784 0.219251588 0.9438468218 0 1 0
53 1 2 0.0 -0.5595096946 0.3907935917 0.8695266843 0 1 0
54 1 3 0.0 -0.1083163396 0.3588646054 1.0271632671 0 1 0
55 1 1 0.0 1.3193484545 -0.6355634332 -0.9966781139 -1 0 1
56 1 2 0.0 1.3616020679 -0.5517256856 -1.3554537296 -1 0 1
57 1 3 0.0 1.26501894 -0.711158812 1.1472812891 -1 0 0
58 1 1 0.0 1.3713952303 0.973108232 -0.8321166039 -1 0 0
59 1 2 0.0 -1.2861047983 1.301460743 -1.1148005724 0 0 0
60 1 3 0.0 -0.8762239218 1.4059861898 1.3920975924 0 0 -1
61 1 4 0.0 -1.3075453043 0.8781939745 -0.3803780079 1 0 0
62 1 2 0.0 -1.1164044142 0.9435729384 0.0534721576 1 0 0
63 1 6 0.0 -1.0859774351 1.1753636599 0.4651454389 1 0 0
64 1 2 0.0 -1.1258718967 -1.3211733103 0.6684439182 1 1 0
65 1 5 0.0 -1.3018730879 -1.0044816732 0.8499701619 1 1 0
66 1 4 0.0 0.9826631546 -0.3336195648 -0.7434449792 -1 0 0
67 1 2 0.0 0.7514900565 -0.1229215115 -0.498717159 -1 0 0
68 1 6 0.0 0.6301389933 0.0940034688 -0.036449451 -1 0 0
69 1 2 0.0 0.6820281744 0.2669082582 0.3665812612 -1 0 0
70 1 5 0.0 0.9115592241 0.3398266137 0.7490521073 -1 0 0
71 1 4 0.0 -1.0039128065 0.7675709128 0.8385931253 0 -1 0
72 1 2 0.0 -0.7933464646 1.133554101 0.9405199885 0 -1 0
73 1 6 0.0 -0.4873575866 -1.3461914062 1.0203124285 0 0 0
74 1 2 0.0 -0.0667653382 -1.0718214512 1.1709464788 0 0 0
75 1 5 0.0 0.3229848742 -0.8388528228 -1.4154866934 0 0 1
76 1 4 0.0 0.1980727464 0.6288303733 1.3967921734 0 0 -1
77 1 2 0.0 -0.027123142 0.93944484 -1.058206439 0 0 0
78 1 6 0.0 -0.1467037648 1.1292319298 -0.6279617548 0 0 0
79 1 2 0.0 -0.1869224161 1.2978752851 -0.2103702426 0 0 0
80 1 5 0.0 -0.1313985288 -1.401289463 0.1442894638 0 1 0
81 1 4 0.0 0.8877068758 -1.2314429283 0.4757961929 -1 1 0
82 1 2 0.0 1.2587356567 -1.2269880772 0.3752499819 -1 1 0
83 1 6 0.0 -1.2305696011 -1.2497130632 0.1513026059 0 1 0
84 1 2 0.0 -0.9664953947 -1.2046027184 -0.1283598691 0 1 0
85 1 5 0.0 -0.8081251979 -1.0432879925 -0.5080864429 0 1 0
86 1 4 0.0 0.3524388671 1.4174768925 -0.0673423484 0 0 0
87 1 2 0.0 0.2865764201 1.0631674528 -0.3318848312 0 0 0
88 1 6 0.0 0.1545221955 0.6715443134 -0.6996843815 0 0 0
89 1 2 0.0 -0.0169591233 0.4046092331 -1.0631307364 0 0 0
90 1 5 0.0 -0.0688487515 0.1129619032 -1.359164238 0 0 0
91 1 4 0.0 -0.3541190028 0.0237476397 -0.5319421291 0 0 0
92 1 2 0.0 -0.1318297237 0.2330143154 -0.1783135533 0 0 0
93 1 6 0.0 0.1521363556 0.4863361418 0.0594445392 0 0 0
94 1 2 0.0 0.4990549684 0.7274901271 0.1162071303 0 0 0
95 1 5 0.0 0.8205760121 0.8739859462 0.2075339854 0 0 0
96 1 4 0.0 -0.0066654738 -0.7632191181 0.3377177715 0 0 0
97 1 2 0.0 -0.3480287492 -0.4497002661 0.1288641989 0 0 0
98 1 6 0.0 -0.6192124486 -0.1105140671 -0.0900166258 0 0 0
99 1 2 0.0 -0.8059812784 0.1909545213 -0.3337295949 0 0 0
100 1 5 0.0 -0.9243836999 0.5649781823 -0.6734885573 0 0 0
101 1 4 0.0 0.3778183162 -0.6207052469 -0.4136973619 0 0 0
102 1 2 0.0 0.4712661803 -0.4314408898 -0.0207642578 0 0 0
103 1 6 0.0 0.3712079823 -0.1773870885 0.4100435972 0 0 0
104 1 2 0.0 0.2562289834 0.1224951372 0.6455826163 0 0 0
105 1 5 0.0 0.1498889625 0.5089874864 0.5957394838 0 0 0
106 1 4 0.0 1.2595266104 0.2081162035 -0.6616311073 -1 0 0
107 1 2 0.0 -1.3787734509 0.3169457614 -1.0159082413 0 0 0
108 1 6 0.0 -1.0556180477 0.4745332003 -1.2907705307 0 0 0
109 1 2 0.0 -0.7144978642 0.6722897887 1.2862546444 0 0 -1
110 1 5 0.0 -0.4251758754 0.8420963287 1.124825716 0 0 -1
111 1 4 0.0 0.9689339399 -0.8282616735 -0.2600736916 -1 0 0
112 1 2 0.0 1.3578168154 -0.7148948312 -0.4396840334 -1 0 0
113 1 6 0.0 -1.1035544872 -0.5176155567 -0.7868430018 0 0 0
114 1 2 0.0 -1.0234003067 -0.2470283657 -1.1642574072 0 0 0
115 1 5 0.0 -1.2456202507 0.0334252119 1.3449755907 0 0 -1
116 1 4 0.0 -1.2323881388 -0.738681376 0.2725999355 -1 1 0
117 1 2 0.0 -0.9019471407 -0.9067349434 0.3891346455 -1 1 0
118 1 6 0.0 -0.6549122334 -1.289031148 0.4413873255 -1 1 0
119 1 2 0.0 -0.5470343828 1.2057065964 0.4825874567 -1 0 0
120 1 5 0.0 -0.4639492035 0.7612999082 0.5139641762 -1 0 0
121 1 4 0.0 -0.4625094831 -0.586224854 -0.4316940606 1 0 0
122 1 2 0.0 -0.1047427654 -0.4507495761 -0.6988403201 1 0 0
123 1 6 0.0 0.144379735 -0.3890562952 -1.1687188148 1 0 0
124 1 2 0.0 0.4850983024 -0.3197161257 1.2529389858 1 0 -1
125 1 5 0.0 0.8675882816 -0.2122078389 0.8263483047 1 0 -1
126 1 4 0.0 -0.1933321357 0.7729790807 -0.1744449735 0 0 0
127 1 2 0.0 -0.4282028079 0.6187553406 -0.6735844612 0 0 0
128 1 6 0.0 -0.5622411966 0.3976659179 -1.0968358517 0 0 0
129 1 2 0.0 -0.6735184789 0.0762799308 1.3855421543 0 0 -1
130 1 5 0.0 -0.7505835295 -0.2091397196 1.176009655 0 0 -1
131 1 4 0.0 0.5915893316 -0.0192541368 -1.1040558815 0 0 0
132 1 2 0.0 0.5917285085 0.4147498608 -1.1423511505 0 0 0
133 1 6 0.0 0.5445334911 0.9604728222 -1.2382752895 0 0 0
134 1 2 0.0 0.6184718013 -1.3825438023 -1.297129035 0 1 0
135 1 5 0.0 0.8491248488 -1.0018969774 1.352968812 0 1 -1
136 1 4 0.0 -1.286162734 -1.0996381044 -0.825417757 1 1 0
137 1 2 0.0 -1.07815063 1.4032585621 -0.6745048165 1 0 0
138 1 6 0.0 -0.8527323604 1.1013258696 -0.5132215023 1 0 0
139 1 2 0.0 -0.690934062 0.7554681301 -0.2484661788 1 0 0
140 1 5 0.0 -0.5637466311 0.4694433212 -0.0113769704 1 0 0
141 1 4 0.0 0.9501079321 -1.3186717033 -0.0551868044 -1 0 0
142 1 2 0.0 0.8647396564 1.022497654 -0.284781307 -1 -1 0
143 1 6 0.0 0.734782517 0.6389847994 -0.474996835 -1 -1 0
144 1 2 0.0 0.421857506 0.2472237498 -0.6760625243 -1 -1 0
145 1 5 0.0 0.1166504845 -0.0212509856 -0.8729107976 -1 -1 0
146 1 4 0.0 -0.4332971573 1.1235150099 -1.2445423603 0 -1 0
147 1 2 0.0 -0.0153067568 1.2483102083 1.3669873476 0 -1 -1
148 1 6 0.0 0.3592559993 -1.3826329708 1.0716227293 0 0 -1
149 1 2 0.0 0.6063803434 -1.1553772688 0.8814448118 0 0 -1
150 1 5 0.0 0.96675843 -0.8119472861 0.7741492391 0 0 -1
151 1 4 0.0 0.8125788569 1.1193273067 -0.825782001 0 -1 1
152 1 2 0.0 0.3521763682 1.31564641 -0.8984287381 0 -1 1
153 1 6 0.0 0.0017717616 -1.3825212717 -1.0573807955 0 0 1
154 1 2 0.0 -0.3294000626 -1.1723104715 -1.2452766895 0 0 1
155 1 5 0.0 -0.570194006 -1.011530757 1.4176129103 0 0 0
156 1 4 0.0 -1.1135339737 -0.9958115816 -1.289588809 1 0 0
157 1 2 0.0 -1.4079122543 -1.1300594807 1.358725071 1 0 -1
158 1 6 0.0 1.1611275673 -1.3273233175 1.0798881054 0 0 -1
159 1 2 0.0 1.0257828236 1.1980628967 0.7962902784 0 -1 -1
160 1 5 0.0 1.1508309841 0.8072790504 0.6735967994 0 -1 -1

Bonds

1 1 1 2
2 12 1 125
3 2 2 3
4 7 3 121
5 1 4 5
6 11 4 146
7 12 4 100
8 2 5 6
9 1 7 8
10 12 7 140
11 12 7 120
12 2 8 9
13 8 9 90
14 1 10 11
15 12 10 95
16 2 11 12
17 1 13 14
18 12 13 150
19 2 14 15
20 8 15 160
21 7 15 71
22 1 16 17
23 12 16 85
24 11 16 156
25 2 17 18
26 8 18 145
27 7 18 91
28 1 19 20
29 2 20 21
30 8 21 75
31 7 21 131
32 1 22 23
33 2 23 24
34 8 24 70
35 8 24 115
36 1 25 26
37 11 25 106
38 2 26 27
39 7 27 141
40 7 27 116
41 1 28 29
42 11 28 111
43 11 28 86
44 2 29 30
45 1 31 32
46 2 32 33
47 1 34 35
48 11 34 76
49 2 35 36
50 1 37 38
51 2 38 39
52 8 39 110
53 1 40 41
54 11 40 96
55 11 40 81
56 2 41 42
57 8 42 105
58 7 42 126
59 1 43 44
60 11 43 101
61 2 44 45
62 1 46 47
63 12 46 80
64 2 47 48
65 8 48 130
66 8 48 155
67 1 49 50
68 2 50 51
69 1 52 53
70 2 53 54
71 1 55 56
72 11 55 66
73 11 55 136
74 2 56 57
75 8 57 65
76 8 57 135
77 1 58 59
78 11 58 61
79 11 58 151
80 2 59 60
81 5 61 62
82 4 62 63
83 4 63 64
84 3 64 65
85 5 66 67
86 4 67 68
87 4 68 69
88 3 69 70
89 5 71 72
90 4 72 73
91 4 73 74
92 3 74 75
93 5 76 77
94 4 77 78
95 4 78 79
96 3 79 80
97 5 81 82
98 4 82 83
99 4 83 84
100 3 84 85
101 5 86 87
102 4 87 88
103 4 88 89
104 3 89 90
105 5 91 92
106 4 92 93
107 4 93 94
108 3 94 95
109 5 96 97
110 4 97 98
111 4 98 99
112 3 99 100
113 5 101 102
114 4 102 103
115 4 103 104
116 3 104 105
117 5 106 107
118 4 107 108
119 4 108 109
120 3 109 110
121 5 111 112
122 4 112 113
123 4 113 114
124 3 114 115
125 5 116 117
126 4 117 118
127 4 118 119
128 3 119 120
129 5 121 122
130 4 122 123
131 4 123 124
132 3 124 125
133 5 126 127
134 4 127 128
135 4 128 129
136 3 129 130
137 5 131 132
138 4 132 133
139 4 133 134
140 3 134 135
141 5 136 137
142 4 137 138
143 4 138 139
144 3 139 140
145 5 141 142
146 4 142 143
147 4 143 144
148 3 144 145
149 5 146 147
150 4 147 148
151 4 148 149
152 3 149 150
153 5 151 152
154 4 152 153
155 4 153 154
156 3 154 155
157 5 156 157
158 4 157 158
159 4 158 159
160 3 159 160
