# LAMMPS data file written by Ovito 3.0.0-dev349
160 atoms
160 bonds
6 atom types
12 bond types
-1.442363739 1.442363739 xlo xhi
-1.442363739 1.442363739 ylo yhi
-1.442363739 1.442363739 zlo zhi

Atoms # full

1 1 1 0.0 1.0746613741 -0.1293842494 0.5426614881 0 0 0
2 1 2 0.0 -1.3807252645 -0.1879751086 0.2933490574 1 0 0
3 1 3 0.0 -1.0382753611 -0.5494589806 -0.0122199738 1 0 0
4 1 1 0.0 -0.9461545944 0.8837946653 -1.1532819271 1 0 1
5 1 2 0.0 -1.26377666 0.9205752611 1.2929699421 1 0 0
6 1 3 0.0 -1.4388380051 1.1167172194 0.8708006144 1 0 0
7 1 1 0.0 -0.3040186167 0.2394465804 0.3507546186 1 -1 0
8 1 2 0.0 -0.2839918435 -0.0819665268 0.6822211742 1 -1 0
9 1 3 0.0 0.0034246529 -0.2252037972 1.0791101456 1 -1 0
10 1 1 0.0 1.2119994164 1.1471861601 0.2648455203 -1 -1 0
11 1 2 0.0 1.381472826 1.3164055347 -0.1425163448 -1 -1 0
12 1 3 0.0 1.4091135263 -1.1241306067 -0.3873847425 -1 0 0
13 1 1 0.0 1.3860526085 -0.4341075718 0.7726588249 -1 0 0
14 1 2 0.0 -1.4003207684 0.1006241068 0.7510958314 0 0 0
15 1 3 0.0 -1.3812252283 0.4450643957 0.5490413308 0 0 0
16 1 1 0.0 -0.7572207451 -0.9426340461 -1.0972418785 -1 0 1
17 1 2 0.0 -0.6256699562 -0.5687579513 -1.1941725016 -1 0 1
18 1 3 0.0 -0.3020755649 -0.2052451521 -1.162124157 -1 0 1
19 1 1 0.0 0.8251948953 -1.226580143 -0.5379348993 -1 0 1
20 1 2 0.0 0.7777712941 -0.9396726489 -0.7922905087 -1 0 1
21 1 3 0.0 0.7008528709 -0.7419589162 -1.1459833384 -1 0 1
22 1 1 0.0 1.1289317608 0.6440377831 -0.8388667107 0 0 1
23 1 2 0.0 1.2680387497 0.641492486 -1.2911884785 0 0 1
24 1 3 0.0 1.3713041544 0.3912073672 1.2002339363 0 0 0
25 1 1 0.0 1.130006671 0.0123882601 -0.0908639356 0 0 1
26 1 2 0.0 0.9732699394 -0.404674381 0.0812957957 0 0 1
27 1 3 0.0 1.1048263311 -0.8122214079 0.1925304085 0 0 1
28 1 1 0.0 0.600004971 -0.909700036 -0.0513129085 0 0 0
29 1 2 0.0 0.5786269307 -0.7250881195 0.4431650043 0 0 0
30 1 3 0.0 0.292835772 -0.6864518523 0.8613616228 0 0 0
31 1 1 0.0 -0.8386631608 -0.1842439324 0.6580836177 0 1 0
32 1 2 0.0 -0.9647821188 0.1702556908 0.3986719549 0 1 0
33 1 3 0.0 -1.2120115757 0.3363680542 0.0021945615 0 1 0
34 1 1 0.0 0.3775218725 0.3956940472 1.0253845453 0 -1 -1
35 1 2 0.0 0.67478019 0.0846684948 1.1631730795 0 -1 -1
36 1 3 0.0 1.1114593744 -0.0680948719 1.2325600386 0 -1 -1
37 1 1 0.0 1.0362910032 0.8818519711 1.1324142218 0 0 0
38 1 2 0.0 0.5445651412 0.8548681736 0.884098947 0 0 0
39 1 3 0.0 0.0670788214 0.9932869673 0.797203958 0 0 0
40 1 1 0.0 0.3461670578 -1.1597759724 0.4380270839 0 0 0
41 1 2 0.0 0.187313199 1.4215528965 0.4790902734 0 -1 0
42 1 3 0.0 0.0654962063 1.0055881739 0.2704437971 0 -1 0
43 1 1 0.0 0.2205582857 -0.9441034794 -0.8435771465 0 0 0
44 1 2 0.0 -0.2603294551 -1.1111952066 -0.7490053773 0 0 0
45 1 3 0.0 -0.6594712734 -1.4329179525 -0.940489471 0 0 0
46 1 1 0.0 -0.1796699464 -1.0124671459 0.6257146001 1 0 0
47 1 2 0.0 -0.5485038161 -0.686879158 0.7161666751 1 0 0
48 1 3 0.0 -0.8468538523 -0.5279040337 1.0273249149 1 0 0
49 1 1 0.0 -0.5404220223 -0.8869827986 0.0907617658 0 1 0
50 1 2 0.0 -0.1969052553 -0.8973122835 -0.224169448 0 1 0
51 1 3 0.0 0.2062631547 -1.1035624743 -0.3714534044 0 1 0
52 1 1 0.0 -0.9805418253 0.382692337 0.9839564562 0 1 0
53 1 2 0.0 -0.5437876582 0.3093239069 0.9111264944 0 1 0
54 1 3 0.0 -0.1083799377 0.3234561086 0.9606192708 0 1 0
55 1 1 0.0 1.236762166 -0.5542522669 -0.9983589053 -1 0 1
56 1 2 0.0 1.1059817076 -0.5558802485 -1.3269432783 -1 0 1
57 1 3 0.0 1.0082067251 -0.7786614299 1.2843805552 -1 0 0
58 1 1 0.0 1.3705723286 1.0828392506 -0.7978110909 -1 0 0
59 1 2 0.0 -1.3259792328 1.2326378822 -1.18387115 0 0 0
60 1 3 0.0 -0.9352298379 1.417003274 1.403506279 0 0 -1
61 1 4 0.0 -1.3026971817 0.8896015882 -0.3421420753 1 0 0
62 1 2 0.0 -1.1886204481 0.9064953327 0.0907213688 1 0 0
63 1 6 0.0 -1.1468504667 1.2083172798 0.4683412313 1 0 0
64 1 2 0.0 -1.2662079334 -1.2310675383 0.8161911964 1 1 0
65 1 5 0.0 -1.4330095053 -0.9102134109 1.0414016247 1 1 0
66 1 4 0.0 0.8909325004 -0.3185816109 -0.661321342 -1 0 0
67 1 2 0.0 0.6568745971 -0.1393103004 -0.3520011902 -1 0 0
68 1 6 0.0 0.5648789406 0.098300986 0.0257585477 -1 0 0
69 1 2 0.0 0.702069521 0.3132185042 0.4588671625 -1 0 0
70 1 5 0.0 0.9451022148 0.3440265357 0.855081439 -1 0 0
71 1 4 0.0 -0.9796071649 0.7773708701 0.7074694633 0 -1 0
72 1 2 0.0 -0.6997430325 1.096244216 0.8980903625 0 -1 0
73 1 6 0.0 -0.4142775238 -1.4142582417 0.9832348824 0 0 0
74 1 2 0.0 -0.0817587748 -1.1053720713 1.1683928967 0 0 0
75 1 5 0.0 0.3116299212 -0.9343115687 1.4137778282 0 0 0
76 1 4 0.0 0.1750157326 0.6754792333 1.4151313305 0 0 -1
77 1 2 0.0 -0.0021033324 0.9517754912 -1.0820900202 0 0 0
78 1 6 0.0 -0.1665088236 1.207768321 -0.6881936789 0 0 0
79 1 2 0.0 -0.2029932141 -1.440656662 -0.2008620352 0 1 0
80 1 5 0.0 -0.1949337721 -1.2697447538 0.1847143024 0 1 0
81 1 4 0.0 0.8955617547 -1.1915006638 0.4581541121 -1 1 0
82 1 2 0.0 1.2976226807 -1.2457779646 0.3977590501 -1 1 0
83 1 6 0.0 -1.1616774797 -1.2459614277 0.1282037199 0 1 0
84 1 2 0.0 -0.9598497748 -1.1658636332 -0.1851029694 0 1 0
85 1 5 0.0 -0.7934376001 -0.9916779995 -0.5462553501 0 1 0
86 1 4 0.0 0.4978512228 1.436062932 -0.1053210422 0 0 0
87 1 2 0.0 0.3416326642 1.0417803526 -0.293148309 0 0 0
88 1 6 0.0 0.2381756157 0.7007431388 -0.6735669971 0 0 0
89 1 2 0.0 0.1444861144 0.437428385 -1.0150530338 0 0 0
90 1 5 0.0 0.0600353368 0.144701764 -1.3936917782 0 0 0
91 1 4 0.0 -0.3859145045 0.062433783 -0.7312130928 0 0 0
92 1 2 0.0 -0.0999984667 0.2281917334 -0.2993995845 0 0 0
93 1 6 0.0 0.1582438648 0.4288587868 -0.0183808561 0 0 0
94 1 2 0.0 0.4829670191 0.7055084705 0.1132647693 0 0 0
95 1 5 0.0 0.7651457787 0.9550670385 0.201846689 0 0 0
96 1 4 0.0 0.0379120111 -0.72943753 0.261077404 0 0 0
97 1 2 0.0 -0.2711600661 -0.3835596144 0.1260141581 0 0 0
98 1 6 0.0 -0.6570371389 -0.0525886342 -0.0867779627 0 0 0
99 1 2 0.0 -0.9464133382 0.2047841698 -0.4222228825 0 0 0
100 1 5 0.0 -1.0370649099 0.5537710786 -0.7288476825 0 0 0
101 1 4 0.0 0.3674316108 -0.6217150688 -0.4490867555 0 0 0
102 1 2 0.0 0.3603670895 -0.4312855005 -0.0081883995 0 0 0
103 1 6 0.0 0.2639644146 -0.1428645104 0.3849177957 0 0 0
104 1 2 0.0 0.2633065581 0.1062293351 0.5878782272 0 0 0
105 1 5 0.0 0.1770675927 0.5649139285 0.5163912177 0 0 0
106 1 4 0.0 1.3828505278 0.1479966491 -0.5704580545 -1 0 0
107 1 2 0.0 -1.3020986319 0.2461461872 -1.0292352438 0 0 0
108 1 6 0.0 -1.0676488876 0.4653792381 -1.3717783689 0 0 0
109 1 2 0.0 -0.7098449469 0.6674852371 1.3342423439 0 0 -1
110 1 5 0.0 -0.3047083914 0.8021553159 1.1138454676 0 0 -1
111 1 4 0.0 1.0463788509 -0.7909529209 -0.2896811068 -1 0 0
112 1 2 0.0 1.4392726421 -0.6272090673 -0.5100280643 -1 0 0
113 1 6 0.0 -1.1326711178 -0.5153483748 -0.8302487731 0 0 0
114 1 2 0.0 -1.0631856918 -0.3532300293 -1.2896826267 0 0 0
115 1 5 0.0 -1.207400322 -0.0274180565 1.3366296291 0 0 -1
116 1 4 0.0 -1.3465602398 -0.7937757969 0.4790549278 -1 1 0
117 1 2 0.0 -0.8971745968 -0.999748826 0.5508610606 -1 1 0
118 1 6 0.0 -0.6334581375 -1.337071538 0.5143524408 -1 1 0
119 1 2 0.0 -0.4117969573 1.0995972157 0.4862272739 -1 0 0
120 1 5 0.0 -0.3114230037 0.7156919837 0.4900228679 -1 0 0
121 1 4 0.0 -0.6157158017 -0.4973043799 -0.3437069058 1 0 0
122 1 2 0.0 -0.2469110489 -0.5241229534 -0.7844602466 1 0 0
123 1 6 0.0 0.1094993949 -0.5511758924 -1.1464782953 1 0 0
124 1 2 0.0 0.5181879997 -0.4025681317 1.257547617 1 0 -1
125 1 5 0.0 0.8198981285 -0.3414596915 0.9436651468 1 0 -1
126 1 4 0.0 -0.1543457359 0.8908484578 -0.2129018307 0 0 0
127 1 2 0.0 -0.3335377574 0.7442830801 -0.6408330798 0 0 0
128 1 6 0.0 -0.4934850633 0.5375368595 -0.9893481135 0 0 0
129 1 2 0.0 -0.6036783457 0.2218319178 -1.3173027039 0 0 0
130 1 5 0.0 -0.6813516617 -0.115790695 1.3059293032 0 0 -1
131 1 4 0.0 0.7132965922 -0.1991190165 -1.1362122297 0 0 0
132 1 2 0.0 0.6622821689 0.3226482272 -1.2019020319 0 0 0
133 1 6 0.0 0.6916564107 0.749250114 -1.1873786449 0 0 0
134 1 2 0.0 0.7228708863 1.2200983763 -1.3308365345 0 0 0
135 1 5 0.0 0.7834447622 -1.2548929453 -1.4214208126 0 1 0
136 1 4 0.0 1.4334776402 -1.0299955606 -0.8736010194 0 1 0
137 1 2 0.0 -1.1754980087 -1.3836693764 -0.774936974 1 1 0
138 1 6 0.0 -0.9352847338 1.1155760288 -0.5934708714 1 0 0
139 1 2 0.0 -0.7493815422 0.7418003082 -0.2784921825 1 0 0
140 1 5 0.0 -0.6056214571 0.4302833676 -0.0110056866 1 0 0
141 1 4 0.0 0.9884868264 -1.2864882946 -0.0593901575 -1 0 0
142 1 2 0.0 0.9172582626 1.1087206602 -0.2414429039 -1 -1 0
143 1 6 0.0 0.766825974 0.6974015832 -0.4059862196 -1 -1 0
144 1 2 0.0 0.5278355479 0.2644504011 -0.6010590792 -1 -1 0
145 1 5 0.0 0.1381026953 -0.0702263191 -0.8435997963 -1 -1 0
146 1 4 0.0 -0.4721193612 1.0948965549 -1.3097854853 0 -1 0
147 1 2 0.0 -0.0485081486 1.2299704552 1.3133237362 0 -1 -1
148 1 6 0.0 0.3757017255 -1.4063421488 1.0920510292 0 0 -1
149 1 2 0.0 0.6907306314 -1.0813239813 0.9317991138 0 0 -1
150 1 5 0.0 1.0156786442 -0.7983439565 0.7681516409 0 0 -1
151 1 4 0.0 0.8361908197 1.144693017 -0.790194869 0 -1 1
152 1 2 0.0 0.3659503758 1.3251564503 -0.9378554225 0 -1 1
153 1 6 0.0 0.0273759924 -1.356017828 -1.1175214052 0 0 1
154 1 2 0.0 -0.4067470431 -1.2330729961 -1.3568167686 0 0 1
155 1 5 0.0 -0.6972693205 -0.9228175879 1.2705800533 0 0 0
156 1 4 0.0 -1.2110829353 -1.0519161224 -1.2984534502 1 0 0
157 1 2 0.0 1.3286350965 -1.2538269758 1.3975145817 0 0 -1
158 1 6 0.0 1.0787881613 -1.438018322 1.0430909395 0 0 -1
159 1 2 0.0 0.9233465791 1.1853909492 0.7201483846 0 -1 -1
160 1 5 0.0 1.1151907444 0.752913475 0.5972244143 0 -1 -1

Bonds

1 1 1 2
2 12 1 125
3 2 2 3
4 7 3 121
5 1 4 5
6 11 4 146
7 12 4 100
8 2 5 6
9 1 7 8
10 12 7 140
11 12 7 120
12 2 8 9
13 8 9 90
14 1 10 11
15 12 10 95
16 2 11 12
17 1 13 14
18 12 13 150
19 2 14 15
20 8 15 160
21 7 15 71
22 1 16 17
23 12 16 85
24 11 16 156
25 2 17 18
26 8 18 145
27 7 18 91
28 1 19 20
29 2 20 21
30 8 21 75
31 7 21 131
32 1 22 23
33 2 23 24
34 8 24 70
35 8 24 115
36 1 25 26
37 11 25 106
38 2 26 27
39 7 27 141
40 7 27 116
41 1 28 29
42 11 28 111
43 11 28 86
44 2 29 30
45 1 31 32
46 2 32 33
47 1 34 35
48 11 34 76
49 2 35 36
50 1 37 38
51 2 38 39
52 8 39 110
53 1 40 41
54 11 40 96
55 11 40 81
56 2 41 42
57 8 42 105
58 7 42 126
59 1 43 44
60 11 43 101
61 2 44 45
62 1 46 47
63 12 46 80
64 2 47 48
65 8 48 130
66 8 48 155
67 1 49 50
68 2 50 51
69 1 52 53
70 2 53 54
71 1 55 56
72 11 55 66
73 11 55 136
74 2 56 57
75 8 57 65
76 8 57 135
77 1 58 59
78 11 58 61
79 11 58 151
80 2 59 60
81 5 61 62
82 4 62 63
83 4 63 64
84 3 64 65
85 5 66 67
86 4 67 68
87 4 68 69
88 3 69 70
89 5 71 72
90 4 72 73
91 4 73 74
92 3 74 75
93 5 76 77
94 4 77 78
95 4 78 79
96 3 79 80
97 5 81 82
98 4 82 83
99 4 83 84
100 3 84 85
101 5 86 87
102 4 87 88
103 4 88 89
104 3 89 90
105 5 91 92
106 4 92 93
107 4 93 94
108 3 94 95
109 5 96 97
110 4 97 98
111 4 98 99
112 3 99 100
113 5 101 102
114 4 102 103
115 4 103 104
116 3 104 105
117 5 106 107
118 4 107 108
119 4 108 109
120 3 109 110
121 5 111 112
122 4 112 113
123 4 113 114
124 3 114 115
125 5 116 117
126 4 117 118
127 4 118 119
128 3 119 120
129 5 121 122
130 4 122 123
131 4 123 124
132 3 124 125
133 5 126 127
134 4 127 128
135 4 128 129
136 3 129 130
137 5 131 132
138 4 132 133
139 4 133 134
140 3 134 135
141 5 136 137
142 4 137 138
143 4 138 139
144 3 139 140
145 5 141 142
146 4 142 143
147 4 143 144
148 3 144 145
149 5 146 147
150 4 147 148
151 4 148 149
152 3 149 150
153 5 151 152
154 4 152 153
155 4 153 154
156 3 154 155
157 5 156 157
158 4 157 158
159 4 158 159
160 3 159 160
