# LAMMPS data file written by Ovito 3.0.0-dev349
160 atoms
160 bonds
6 atom types
12 bond types
-1.4259449245 1.4259449245 xlo xhi
-1.4259449245 1.4259449245 ylo yhi
-1.4259449245 1.4259449245 zlo zhi

Atoms # full

1 1 1 0.0 1.0950015783 -0.1382890195 0.4848210514 0 0 0
2 1 2 0.0 -1.2791662216 -0.3445849717 0.1455368996 1 0 0
3 1 3 0.0 -1.0567671061 -0.6692735553 -0.1945182532 1 0 0
4 1 1 0.0 -0.7879956365 0.9131168723 -1.2226020098 1 0 1
5 1 2 0.0 -1.1073746681 0.9569995999 1.3644077778 1 0 0
6 1 3 0.0 1.3334101439 1.12786901 1.2431008816 0 0 0
7 1 1 0.0 -0.2285228074 0.1021562368 0.3401141167 1 -1 0
8 1 2 0.0 -0.2009322643 -0.1681381911 0.6302911043 1 -1 0
9 1 3 0.0 -0.170364216 -0.2571281195 1.1737431288 1 -1 0
10 1 1 0.0 1.2215100527 1.1506836414 0.0016036325 -1 -1 0
11 1 2 0.0 1.3161857128 1.3544462919 -0.3613961935 -1 -1 0
12 1 3 0.0 1.1792154312 -1.2517052889 -0.8547351956 -1 0 0
13 1 1 0.0 -1.3649532795 -0.5296258926 0.7879506946 0 0 0
14 1 2 0.0 -1.3644584417 -0.0071739987 0.7683216333 0 0 0
15 1 3 0.0 -1.2193465233 0.430930078 0.5277658105 0 0 0
16 1 1 0.0 -0.8064730167 -0.8627901673 -0.925429225 -1 0 1
17 1 2 0.0 -0.5465936065 -0.4476488233 -1.0863729715 -1 0 1
18 1 3 0.0 -0.3208690286 -0.1115866005 -1.0248690844 -1 0 1
19 1 1 0.0 0.695546329 -1.2306269407 -0.6115162969 -1 0 1
20 1 2 0.0 0.7247504592 -0.7824472189 -0.8776422143 -1 0 1
21 1 3 0.0 0.709323585 -0.5419320464 -1.2440820932 -1 0 1
22 1 1 0.0 1.170922637 0.5445389748 -0.8052757382 0 0 1
23 1 2 0.0 1.2365802526 0.6485352516 -1.2871849537 0 0 1
24 1 3 0.0 1.3496330976 0.5019322634 1.1932381392 0 0 0
25 1 1 0.0 1.1861207485 0.0336740278 -0.1064965352 0 0 1
26 1 2 0.0 1.0508368015 -0.3048377931 0.0372863077 0 0 1
27 1 3 0.0 1.0838960409 -0.802926302 0.2324701548 0 0 1
28 1 1 0.0 0.5213281512 -0.9576923847 0.0618422925 0 0 0
29 1 2 0.0 0.5426566601 -0.7126511335 0.4393551946 0 0 0
30 1 3 0.0 0.2979855835 -0.4639123976 0.7403527498 0 0 0
31 1 1 0.0 -0.8881239891 -0.2117788196 0.7381299138 0 1 0
32 1 2 0.0 -0.8980036378 0.0745307356 0.3752793372 0 1 0
33 1 3 0.0 -1.0951461792 0.2445448041 0.0204844549 0 1 0
34 1 1 0.0 0.4564155042 0.516938746 1.0472816229 0 -1 -1
35 1 2 0.0 0.7835962176 0.1430205703 1.1984199286 0 -1 -1
36 1 3 0.0 1.133649826 -0.0354734734 1.1505393982 0 -1 -1
37 1 1 0.0 0.8603661656 0.8768575788 1.146099329 0 0 0
38 1 2 0.0 0.5454773307 1.0811030865 0.9277732968 0 0 0
39 1 3 0.0 0.192394346 1.030352354 0.7577922344 0 0 0
40 1 1 0.0 0.2469486147 -1.1487950087 0.4873329699 0 0 0
41 1 2 0.0 0.0209504794 1.3770245314 0.4181011617 0 -1 0
42 1 3 0.0 0.0378740802 0.9002791643 0.2367413938 0 -1 0
43 1 1 0.0 0.2010447085 -0.9059306383 -0.8999023438 0 0 0
44 1 2 0.0 -0.2552578449 -1.0930724144 -0.721862793 0 0 0
45 1 3 0.0 -0.6797415018 -1.3768924475 -0.8408787847 0 0 0
46 1 1 0.0 -0.2567749321 -0.9962363243 0.5614255667 1 0 0
47 1 2 0.0 -0.613429904 -0.7815843225 0.7550981045 1 0 0
48 1 3 0.0 -0.9064115882 -0.6888657212 1.0775825977 1 0 0
49 1 1 0.0 -0.6189142466 -0.8032235503 0.1206410304 0 1 0
50 1 2 0.0 -0.2027954161 -0.9045030475 -0.2384275943 0 1 0
51 1 3 0.0 0.1661124676 -1.2140974998 -0.4023014605 0 1 0
52 1 1 0.0 -0.9871316552 0.2482592463 0.9877897501 0 1 0
53 1 2 0.0 -0.5219300985 0.1329640895 0.9731453061 0 1 0
54 1 3 0.0 0.0022255231 0.2519115508 0.9149219394 0 1 0
55 1 1 0.0 1.2440868616 -0.481148988 -0.9270408154 -1 0 1
56 1 2 0.0 1.2171382904 -0.4953562319 -1.3625789881 -1 0 1
57 1 3 0.0 1.1527490616 -0.7081249952 1.2078704834 -1 0 0
58 1 1 0.0 1.3082447052 1.0232564211 -0.7655328512 -1 0 0
59 1 2 0.0 -1.2409083843 1.2579284906 -1.0111681223 0 0 0
60 1 3 0.0 -0.9182723761 1.3835760355 -1.3549332619 0 0 0
61 1 4 0.0 -1.3834289312 0.7607905269 -0.3634501696 1 0 0
62 1 2 0.0 -1.229036808 0.7930285335 0.0984893218 1 0 0
63 1 6 0.0 -1.1965931654 1.0503509045 0.4741320014 1 0 0
64 1 2 0.0 -1.235727191 1.4067543745 0.7565984726 1 0 0
65 1 5 0.0 -1.3671114445 -1.0493969917 0.9843499064 1 1 0
66 1 4 0.0 0.8300871849 -0.3344529867 -0.6622406244 -1 0 0
67 1 2 0.0 0.6543118954 -0.10380283 -0.3505969346 -1 0 0
68 1 6 0.0 0.6276777387 0.086017929 0.0074542593 -1 0 0
69 1 2 0.0 0.7452387214 0.3283042908 0.396204561 -1 0 0
70 1 5 0.0 1.0066472292 0.4670008719 0.7789307237 -1 0 0
71 1 4 0.0 -0.9297274947 0.773457706 0.8285267353 0 -1 0
72 1 2 0.0 -0.7032324672 1.1508014202 0.9843866229 0 -1 0
73 1 6 0.0 -0.5198262334 -1.3102949858 1.0847953558 0 0 0
74 1 2 0.0 -0.1681306213 -0.9793719053 1.1606215239 0 0 0
75 1 5 0.0 0.2564425766 -0.779653728 1.3413362503 0 0 0
76 1 4 0.0 0.1972137094 0.7573533058 1.4155166149 0 0 -1
77 1 2 0.0 -0.0799178854 0.9447599053 -0.9979934096 0 0 0
78 1 6 0.0 -0.2239112109 1.2054556608 -0.67556113 0 0 0
79 1 2 0.0 -0.3222309351 1.3916597366 -0.3390722573 0 0 0
80 1 5 0.0 -0.3311017454 -1.2270962 0.1072966307 0 1 0
81 1 4 0.0 0.7329028845 -1.2839144468 0.4496113062 -1 1 0
82 1 2 0.0 1.1596460342 -1.332090497 0.3785811663 -1 1 0
83 1 6 0.0 -1.2445405722 -1.3417223692 0.1611849517 0 1 0
84 1 2 0.0 -0.891251266 -1.2603776455 -0.1017161682 0 1 0
85 1 5 0.0 -0.7905588746 -1.0248585939 -0.4167627692 0 1 0
86 1 4 0.0 0.3983017504 1.4058580399 0.0419193208 0 0 0
87 1 2 0.0 0.2614337802 1.0555781126 -0.2393214256 0 0 0
88 1 6 0.0 0.2030733377 0.7129702568 -0.5956867933 0 0 0
89 1 2 0.0 0.1261339784 0.4603112936 -1.0270539522 0 0 0
90 1 5 0.0 -0.0402075574 0.1367351115 -1.372353673 0 0 0
91 1 4 0.0 -0.3074569404 0.0236633364 -0.5413905978 0 0 0
92 1 2 0.0 -0.1511031836 0.1905357987 -0.2524155974 0 0 0
93 1 6 0.0 0.1267700046 0.32799986 -0.1095925421 0 0 0
94 1 2 0.0 0.4262728989 0.5752616525 -0.017891096 0 0 0
95 1 5 0.0 0.8750140667 0.7981686592 0.0339619778 0 0 0
96 1 4 0.0 0.0292422902 -0.6925904155 0.2447313815 0 0 0
97 1 2 0.0 -0.2640912235 -0.4340139031 0.0296116229 0 0 0
98 1 6 0.0 -0.5278232098 -0.1642019153 -0.1319912225 0 0 0
99 1 2 0.0 -0.8541222811 0.1893307716 -0.4198396802 0 0 0
100 1 5 0.0 -0.862185657 0.6315153837 -0.7769829631 0 0 0
101 1 4 0.0 0.3515262902 -0.674279511 -0.490729481 0 0 0
102 1 2 0.0 0.375145793 -0.4241021574 -0.0330267437 0 0 0
103 1 6 0.0 0.3220394254 -0.1925087422 0.3004668653 0 0 0
104 1 2 0.0 0.281843394 0.1010152102 0.5000541806 0 0 0
105 1 5 0.0 0.2428893596 0.5033383965 0.5199369788 0 0 0
106 1 4 0.0 -1.4038008451 0.0973017439 -0.5316966772 0 0 0
107 1 2 0.0 -1.2355839014 0.3360819817 -0.9971572161 0 0 0
108 1 6 0.0 -1.0152227879 0.4679056406 -1.3046395779 0 0 0
109 1 2 0.0 -0.5786643028 0.5789021254 1.2575821877 0 0 -1
110 1 5 0.0 -0.1625039726 0.7471262217 1.0356018543 0 0 -1
111 1 4 0.0 0.8056101799 -0.688524127 -0.2195366323 -1 0 0
112 1 2 0.0 1.3056305647 -0.4713543355 -0.3973501325 -1 0 0
113 1 6 0.0 -1.1545863152 -0.3533631563 -0.7758359909 0 0 0
114 1 2 0.0 -1.0777407885 -0.1884854883 -1.1330536604 0 0 0
115 1 5 0.0 -1.2858514786 0.0734010935 1.4060229063 0 0 -1
116 1 4 0.0 -1.2819782495 -0.924164474 0.4431592524 -1 1 0
117 1 2 0.0 -0.8904476166 -1.074491024 0.4875932038 -1 1 0
118 1 6 0.0 -0.5605542064 -1.4112561941 0.5854253173 -1 1 0
119 1 2 0.0 -0.3717915118 1.0002959967 0.6058405638 -1 0 0
120 1 5 0.0 -0.2505955994 0.5668061376 0.5758690238 -1 0 0
121 1 4 0.0 -0.5526371598 -0.5587921739 -0.5042501688 1 0 0
122 1 2 0.0 -0.1419873983 -0.4950550497 -0.7616756558 1 0 0
123 1 6 0.0 0.1944518834 -0.3529419601 -1.1722887754 1 0 0
124 1 2 0.0 0.4787953496 -0.3036266267 1.2374061346 1 0 -1
125 1 5 0.0 0.7904595137 -0.277693063 0.8646946549 1 0 -1
126 1 4 0.0 -0.1852839142 0.7974960208 -0.21669662 0 0 0
127 1 2 0.0 -0.3080958128 0.6609957218 -0.5984899402 0 0 0
128 1 6 0.0 -0.3877497613 0.3972973228 -1.0231105089 0 0 0
129 1 2 0.0 -0.6120193601 0.1462935805 -1.3493782282 0 0 0
130 1 5 0.0 -0.7835497856 -0.2300044894 1.2821378708 0 0 -1
131 1 4 0.0 0.7019511461 -0.0290948916 -1.1577136517 0 0 0
132 1 2 0.0 0.7210522294 0.4656804502 -1.1417386532 0 0 0
133 1 6 0.0 0.7049064636 0.9361582398 -1.2463076115 0 0 0
134 1 2 0.0 0.7141060233 1.3637439013 -1.3137923479 0 0 0
135 1 5 0.0 0.7702383995 -1.0703521967 1.4134641886 0 1 -1
136 1 4 0.0 -1.3322814703 -0.8541106582 -0.7203415632 1 1 0
137 1 2 0.0 -1.1785786152 -1.2661124468 -0.6173481941 1 1 0
138 1 6 0.0 -0.9822256565 1.1857924461 -0.4543429017 1 0 0
139 1 2 0.0 -0.8135319948 0.6908869743 -0.2528817654 1 0 0
140 1 5 0.0 -0.5874611139 0.3770741522 0.0548098795 1 0 0
141 1 4 0.0 0.8987726569 -1.2519699335 -0.0652999505 -1 0 0
142 1 2 0.0 0.7918975949 1.1697648764 -0.2835893929 -1 -1 0
143 1 6 0.0 0.7435376048 0.6732801795 -0.4461607635 -1 -1 0
144 1 2 0.0 0.480407536 0.2935439646 -0.6437769532 -1 -1 0
145 1 5 0.0 0.1893090308 0.0271041598 -0.8542986512 -1 -1 0
146 1 4 0.0 -0.3570480049 1.0915026665 -1.4167776108 0 -1 0
147 1 2 0.0 0.0156340245 1.2941936255 1.2232413292 0 -1 -1
148 1 6 0.0 0.3376064301 -1.3314419985 1.0416961908 0 0 -1
149 1 2 0.0 0.6143664122 -0.9748122692 0.8866459727 0 0 -1
150 1 5 0.0 0.9984546304 -0.7567243576 0.7374573946 0 0 -1
151 1 4 0.0 0.822189033 1.1298474073 -0.7943987846 0 -1 1
152 1 2 0.0 0.3796994686 1.2722806931 -0.874889791 0 -1 1
153 1 6 0.0 0.0552683026 -1.3979029655 -1.0811123848 0 0 1
154 1 2 0.0 -0.4045821428 -1.19661057 -1.2586041689 0 0 1
155 1 5 0.0 -0.7022362947 -0.9724344611 -1.4216715097 0 0 1
156 1 4 0.0 -1.2361123562 -1.0424860716 -1.1875618696 1 0 0
157 1 2 0.0 1.2744027376 -1.2107597589 -1.423162818 0 0 0
158 1 6 0.0 1.0055136681 -1.4202412367 0.9526144862 0 0 -1
159 1 2 0.0 1.0285462141 1.0977622271 0.6593537331 0 -1 -1
160 1 5 0.0 1.2475249767 0.7746441364 0.4926452637 0 -1 -1

Bonds

1 1 1 2
2 12 1 125
3 2 2 3
4 7 3 121
5 1 4 5
6 11 4 146
7 12 4 100
8 2 5 6
9 1 7 8
10 12 7 140
11 12 7 120
12 2 8 9
13 8 9 90
14 1 10 11
15 12 10 95
16 2 11 12
17 1 13 14
18 12 13 150
19 2 14 15
20 8 15 160
21 7 15 71
22 1 16 17
23 12 16 85
24 11 16 156
25 2 17 18
26 8 18 145
27 7 18 91
28 1 19 20
29 2 20 21
30 8 21 75
31 7 21 131
32 1 22 23
33 2 23 24
34 8 24 70
35 8 24 115
36 1 25 26
37 11 25 106
38 2 26 27
39 7 27 141
40 7 27 116
41 1 28 29
42 11 28 111
43 11 28 86
44 2 29 30
45 1 31 32
46 2 32 33
47 1 34 35
48 11 34 76
49 2 35 36
50 1 37 38
51 2 38 39
52 8 39 110
53 1 40 41
54 11 40 96
55 11 40 81
56 2 41 42
57 8 42 105
58 7 42 126
59 1 43 44
60 11 43 101
61 2 44 45
62 1 46 47
63 12 46 80
64 2 47 48
65 8 48 130
66 8 48 155
67 1 49 50
68 2 50 51
69 1 52 53
70 2 53 54
71 1 55 56
72 11 55 66
73 11 55 136
74 2 56 57
75 8 57 65
76 8 57 135
77 1 58 59
78 11 58 61
79 11 58 151
80 2 59 60
81 5 61 62
82 4 62 63
83 4 63 64
84 3 64 65
85 5 66 67
86 4 67 68
87 4 68 69
88 3 69 70
89 5 71 72
90 4 72 73
91 4 73 74
92 3 74 75
93 5 76 77
94 4 77 78
95 4 78 79
96 3 79 80
97 5 81 82
98 4 82 83
99 4 83 84
100 3 84 85
101 5 86 87
102 4 87 88
103 4 88 89
104 3 89 90
105 5 91 92
106 4 92 93
107 4 93 94
108 3 94 95
109 5 96 97
110 4 97 98
111 4 98 99
112 3 99 100
113 5 101 102
114 4 102 103
115 4 103 104
116 3 104 105
117 5 106 107
118 4 107 108
119 4 108 109
120 3 109 110
121 5 111 112
122 4 112 113
123 4 113 114
124 3 114 115
125 5 116 117
126 4 117 118
127 4 118 119
128 3 119 120
129 5 121 122
130 4 122 123
131 4 123 124
132 3 124 125
133 5 126 127
134 4 127 128
135 4 128 129
136 3 129 130
137 5 131 132
138 4 132 133
139 4 133 134
140 3 134 135
141 5 136 137
142 4 137 138
143 4 138 139
144 3 139 140
145 5 141 142
146 4 142 143
147 4 143 144
148 3 144 145
149 5 146 147
150 4 147 148
151 4 148 149
152 3 149 150
153 5 151 152
154 4 152 153
155 4 153 154
156 3 154 155
157 5 156 157
158 4 157 158
159 4 158 159
160 3 159 160
