# LAMMPS data file written by Ovito 3.0.0-dev349
160 atoms
160 bonds
6 atom types
12 bond types
-1.435395837 1.435395837 xlo xhi
-1.435395837 1.435395837 ylo yhi
-1.435395837 1.435395837 zlo zhi

Atoms # full

1 1 1 0.0 1.1027013063 -0.1655118763 0.3991638422 0 0 0
2 1 2 0.0 -1.2591046095 -0.2195508182 0.3776522279 1 0 0
3 1 3 0.0 -0.8484752178 -0.4349738061 0.2209762037 1 0 0
4 1 1 0.0 -0.8597350717 0.9605152607 -1.1155903339 1 0 1
5 1 2 0.0 -1.1813682318 0.9375801086 1.3582911491 1 0 0
6 1 3 0.0 -1.3763387203 1.053427577 1.0460677147 1 0 0
7 1 1 0.0 -0.1988752037 0.2502245307 0.3556067646 1 -1 0
8 1 2 0.0 -0.0985194519 -0.1823220104 0.6709511876 1 -1 0
9 1 3 0.0 -0.1944393516 -0.3935055137 1.0160008669 1 -1 0
10 1 1 0.0 1.2613233328 1.1908397675 0.1414985508 -1 -1 0
11 1 2 0.0 1.3497303724 1.3261204958 -0.2832155824 -1 -1 0
12 1 3 0.0 1.2191368341 1.3739207983 -0.6702452898 -1 -1 0
13 1 1 0.0 1.2952194214 -0.4570551515 0.7629131675 -1 0 0
14 1 2 0.0 1.3458731174 -0.0135632921 0.8237709999 -1 0 0
15 1 3 0.0 -1.3609777689 0.4389400482 0.6189666986 0 0 0
16 1 1 0.0 -0.7375420928 -0.8225528002 -0.9816105366 -1 0 1
17 1 2 0.0 -0.4802693129 -0.4953994453 -1.1102631092 -1 0 1
18 1 3 0.0 -0.29866153 -0.1140829623 -1.0012153387 -1 0 1
19 1 1 0.0 0.7624198794 -1.2425775528 -0.6508634686 -1 0 1
20 1 2 0.0 0.6374953389 -0.8650319576 -0.812905252 -1 0 1
21 1 3 0.0 0.6223906875 -0.5529461503 -1.1907023191 -1 0 1
22 1 1 0.0 1.0073796511 0.4374623895 -0.9409393668 0 0 1
23 1 2 0.0 1.1733330488 0.5704120398 -1.3052526712 0 0 1
24 1 3 0.0 1.3842887878 0.4447356761 1.1889566183 0 0 0
25 1 1 0.0 1.094720602 0.226279214 -0.1163721308 0 0 1
26 1 2 0.0 0.9962803721 -0.2523969114 -0.0814449862 0 0 1
27 1 3 0.0 1.0440244675 -0.7050282359 0.1938079596 0 0 1
28 1 1 0.0 0.5228229165 -0.9187622666 0.004444669 0 0 0
29 1 2 0.0 0.5513679981 -0.7008470297 0.4565179646 0 0 0
30 1 3 0.0 0.338743031 -0.6125072837 0.8445346355 0 0 0
31 1 1 0.0 -0.7384915948 -0.0832815543 0.5389223695 0 1 0
32 1 2 0.0 -1.0153321028 0.2333340496 0.2105882168 0 1 0
33 1 3 0.0 -1.3431918621 0.43122226 0.0785493478 0 1 0
34 1 1 0.0 0.3645272851 0.2832973897 1.0794920921 0 -1 -1
35 1 2 0.0 0.7231977582 0.1989893764 1.1589345932 0 -1 -1
36 1 3 0.0 1.0520461798 -0.1117321849 1.2991734743 0 -1 -1
37 1 1 0.0 0.9551698565 0.8699116111 1.1206377745 0 0 0
38 1 2 0.0 0.6104589105 0.8716569543 0.8646700382 0 0 0
39 1 3 0.0 0.088372156 0.9533736706 0.8585675955 0 0 0
40 1 1 0.0 0.3034648001 -1.1444203854 0.4877595901 0 0 0
41 1 2 0.0 0.1189776286 1.373755455 0.4629584253 0 -1 0
42 1 3 0.0 0.0596907847 0.9899815917 0.2332396209 0 -1 0
43 1 1 0.0 0.029503461 -0.8689922094 -0.8374220729 0 0 0
44 1 2 0.0 -0.3018606901 -1.2165640593 -0.7561700344 0 0 0
45 1 3 0.0 -0.5913164616 1.3757764101 -0.9367569089 0 -1 0
46 1 1 0.0 -0.208072111 -1.1252214909 0.5160028934 1 0 0
47 1 2 0.0 -0.4513096809 -0.7518297434 0.6494576335 1 0 0
48 1 3 0.0 -0.848898828 -0.5613288879 0.9248403907 1 0 0
49 1 1 0.0 -0.5476538539 -0.9450394511 0.0606886223 0 1 0
50 1 2 0.0 -0.2421822101 -0.9501821399 -0.3040239215 0 1 0
51 1 3 0.0 0.1969544142 -1.291864872 -0.5697986484 0 1 0
52 1 1 0.0 -1.0275703669 0.131014362 0.8948611021 0 1 0
53 1 2 0.0 -0.6486030817 0.2902413309 0.8542835116 0 1 0
54 1 3 0.0 -0.1328148991 0.284209013 0.8872077465 0 1 0
55 1 1 0.0 1.1003704071 -0.6484957933 -0.974830389 -1 0 1
56 1 2 0.0 1.2428358793 -0.5386094451 -1.324015975 -1 0 1
57 1 3 0.0 1.2588186264 -0.6629757881 1.2417947054 -1 0 0
58 1 1 0.0 1.362421155 0.8513353467 -0.8560147285 -1 0 0
59 1 2 0.0 -1.2795916796 1.2042664289 -1.0788552761 0 0 0
60 1 3 0.0 -0.9160937667 1.4103055 -1.4155834913 0 0 0
61 1 4 0.0 -1.3700278997 0.7923051119 -0.3217900395 1 0 0
62 1 2 0.0 -1.1532853842 0.9157406092 0.1547872871 1 0 0
63 1 6 0.0 -1.1300430298 1.1409890652 0.5136057138 1 0 0
64 1 2 0.0 -1.1424249411 -1.4075520039 0.8523113132 1 1 0
65 1 5 0.0 -1.2607406378 -1.0561608076 0.9909178019 1 1 0
66 1 4 0.0 0.7067255974 -0.3777702749 -0.7248705029 -1 0 0
67 1 2 0.0 0.5610265732 -0.1546359509 -0.4371611178 -1 0 0
68 1 6 0.0 0.5810685158 0.1289209425 -0.0265365299 -1 0 0
69 1 2 0.0 0.7292979956 0.2937197387 0.3640342653 -1 0 0
70 1 5 0.0 1.0324667692 0.3987281024 0.788025558 -1 0 0
71 1 4 0.0 -0.994715929 0.7167365551 0.8447014689 0 -1 0
72 1 2 0.0 -0.769892633 1.0401428938 0.9791159034 0 -1 0
73 1 6 0.0 -0.4650359154 -1.424497962 1.0186598301 0 0 0
74 1 2 0.0 -0.0898656547 -1.0669537783 1.0906413794 0 0 0
75 1 5 0.0 0.2968578637 -0.7877784967 1.3285542727 0 0 0
76 1 4 0.0 0.1546136439 0.6493317485 1.378303647 0 0 -1
77 1 2 0.0 0.0254369117 0.880867362 -1.0853705406 0 0 0
78 1 6 0.0 -0.0660589337 1.1185857058 -0.6927312613 0 0 0
79 1 2 0.0 -0.2439222634 1.3068578243 -0.2776826322 0 0 0
80 1 5 0.0 -0.2245570123 -1.3954674006 0.0885684043 0 1 0
81 1 4 0.0 0.8211542964 -1.173656106 0.4955929518 -1 1 0
82 1 2 0.0 1.2926204205 -1.2595131397 0.4190475047 -1 1 0
83 1 6 0.0 -1.2020871639 -1.2799918652 0.1849073321 0 1 0
84 1 2 0.0 -0.92540133 -1.2696999311 -0.1238747835 0 1 0
85 1 5 0.0 -0.7475178242 -1.0029374361 -0.5085116029 0 1 0
86 1 4 0.0 0.4349829257 -1.4269957542 -0.0094383983 0 1 0
87 1 2 0.0 0.3467096388 1.0803650618 -0.244065702 0 0 0
88 1 6 0.0 0.2493806928 0.753315866 -0.6166012287 0 0 0
89 1 2 0.0 0.0648447648 0.3781611323 -1.0625925064 0 0 0
90 1 5 0.0 -0.0086129801 0.0407681391 1.4170308113 0 0 -1
91 1 4 0.0 -0.3760686219 0.0511559919 -0.5054439902 0 0 0
92 1 2 0.0 -0.1226037815 0.2717253864 -0.2418720424 0 0 0
93 1 6 0.0 0.1426082999 0.4414812624 0.0221343152 0 0 0
94 1 2 0.0 0.4651661217 0.6931248307 0.0998654589 0 0 0
95 1 5 0.0 0.8377829194 0.8801130056 0.1340782791 0 0 0
96 1 4 0.0 0.0465288535 -0.721011579 0.279360652 0 0 0
97 1 2 0.0 -0.2181244195 -0.3711355329 0.1664225608 0 0 0
98 1 6 0.0 -0.5588196516 0.0034560368 0.0112509821 0 0 0
99 1 2 0.0 -0.8336738944 0.3336432874 -0.3126163483 0 0 0
100 1 5 0.0 -0.8459851742 0.6617527604 -0.6971617937 0 0 0
101 1 4 0.0 0.30490762 -0.6540689468 -0.4402706325 0 0 0
102 1 2 0.0 0.3705424964 -0.4319818616 0.0130807776 0 0 0
103 1 6 0.0 0.3790515065 -0.1825083792 0.4171477854 0 0 0
104 1 2 0.0 0.2871014774 0.1737356633 0.5855121613 0 0 0
105 1 5 0.0 0.1838033646 0.5439354777 0.5263133049 0 0 0
106 1 4 0.0 1.378593564 0.2664584816 -0.5722913146 -1 0 0
107 1 2 0.0 -1.230021596 0.3630132973 -0.9682019353 0 0 0
108 1 6 0.0 -0.9752946496 0.4729636908 -1.2779563665 0 0 0
109 1 2 0.0 -0.7029746771 0.6661869884 1.3459056616 0 0 -1
110 1 5 0.0 -0.3514245152 0.7875880003 1.1317415237 0 0 -1
111 1 4 0.0 0.9498063922 -0.8002657294 -0.2905506492 -1 0 0
112 1 2 0.0 1.3314136267 -0.6016530991 -0.4892170429 -1 0 0
113 1 6 0.0 -1.2601292133 -0.5209163427 -0.7675753236 0 0 0
114 1 2 0.0 -1.1631187201 -0.315220952 -1.1868304014 0 0 0
115 1 5 0.0 -1.2388732433 0.0081866495 1.3850256205 0 0 -1
116 1 4 0.0 -1.3595812321 -0.782548666 0.3633244038 -1 1 0
117 1 2 0.0 -0.9422280788 -0.9547756314 0.4743998349 -1 1 0
118 1 6 0.0 -0.6942062974 -1.291424036 0.5846037865 -1 1 0
119 1 2 0.0 -0.4465902448 1.1874656677 0.5896351337 -1 0 0
120 1 5 0.0 -0.2935092151 0.705586493 0.6313477159 -1 0 0
121 1 4 0.0 -0.5493151546 -0.465310663 -0.2279882729 1 0 0
122 1 2 0.0 -0.2337443829 -0.4855661094 -0.6016586423 1 0 0
123 1 6 0.0 0.1328690797 -0.3979844749 -1.1756401062 1 0 0
124 1 2 0.0 0.455376476 -0.2844645381 1.2382631302 1 0 -1
125 1 5 0.0 0.7592842579 -0.1889281869 0.8015654087 1 0 -1
126 1 4 0.0 -0.1414778382 0.8239589334 -0.2426009625 0 0 0
127 1 2 0.0 -0.261397928 0.5625732541 -0.7002630234 0 0 0
128 1 6 0.0 -0.4796364903 0.3688288629 -1.1465388536 0 0 0
129 1 2 0.0 -0.6116111279 0.1380311996 1.4028491974 0 0 -1
130 1 5 0.0 -0.6530385613 -0.1510292143 1.163335681 0 0 -1
131 1 4 0.0 0.6282362342 -0.0325938202 -1.1965491772 0 0 0
132 1 2 0.0 0.5784360766 0.4743930697 -1.264500618 0 0 0
133 1 6 0.0 0.5748386979 0.9497074485 -1.342394948 0 0 0
134 1 2 0.0 0.6910548806 -1.4047373533 -1.3574249744 0 1 0
135 1 5 0.0 0.9104466438 -0.9874408245 1.3961080313 0 1 -1
136 1 4 0.0 -1.4346175194 -1.0571901798 -0.8302013278 1 1 0
137 1 2 0.0 -1.0753054619 -1.4303144217 -0.6795199513 1 1 0
138 1 6 0.0 -0.8909322619 1.1272028685 -0.4163997471 1 0 0
139 1 2 0.0 -0.6611965895 0.8210597634 -0.1700683683 1 0 0
140 1 5 0.0 -0.4574253261 0.5148952007 0.0360489488 1 0 0
141 1 4 0.0 0.9344677925 -1.279110074 -0.0090517476 -1 0 0
142 1 2 0.0 0.8453150392 1.154759407 -0.2707139254 -1 -1 0
143 1 6 0.0 0.7532308102 0.7582557201 -0.48277843 -1 -1 0
144 1 2 0.0 0.5398258567 0.3199540079 -0.6350890994 -1 -1 0
145 1 5 0.0 0.2215358764 -0.0295385979 -0.8029204011 -1 -1 0
146 1 4 0.0 -0.4176766574 1.0525035858 -1.2886606455 0 -1 0
147 1 2 0.0 -0.0744016469 1.2022705078 1.3462048769 0 -1 -1
148 1 6 0.0 0.3080736399 -1.4217642546 1.1561900377 0 0 -1
149 1 2 0.0 0.5887076855 -1.0979692936 0.9878220558 0 0 -1
150 1 5 0.0 0.9261975884 -0.7621304393 0.8655061722 0 0 -1
151 1 4 0.0 0.8341587782 1.0675640106 -0.9054679275 0 -1 1
152 1 2 0.0 0.4929372966 1.207074523 -0.8632820845 0 -1 1
153 1 6 0.0 0.0286198501 -1.4126032591 -1.0903446674 0 0 1
154 1 2 0.0 -0.4003727436 -1.2480005026 -1.3372600079 0 0 1
155 1 5 0.0 -0.7489623427 -0.9679137468 1.2194888592 0 0 0
156 1 4 0.0 -1.1495358944 -1.0011125803 -1.2860941887 1 0 0
157 1 2 0.0 1.3937664032 -1.1958636045 1.4189018011 0 0 -1
158 1 6 0.0 1.1152534485 -1.4118602276 1.0592451096 0 0 -1
159 1 2 0.0 1.0836883783 1.1940357685 0.7039997578 0 -1 -1
160 1 5 0.0 1.1966882944 0.8406347632 0.5258567929 0 -1 -1

Bonds

1 1 1 2
2 12 1 125
3 2 2 3
4 7 3 121
5 1 4 5
6 11 4 146
7 12 4 100
8 2 5 6
9 1 7 8
10 12 7 140
11 12 7 120
12 2 8 9
13 8 9 90
14 1 10 11
15 12 10 95
16 2 11 12
17 1 13 14
18 12 13 150
19 2 14 15
20 8 15 160
21 7 15 71
22 1 16 17
23 12 16 85
24 11 16 156
25 2 17 18
26 8 18 145
27 7 18 91
28 1 19 20
29 2 20 21
30 8 21 75
31 7 21 131
32 1 22 23
33 2 23 24
34 8 24 70
35 8 24 115
36 1 25 26
37 11 25 106
38 2 26 27
39 7 27 141
40 7 27 116
41 1 28 29
42 11 28 111
43 11 28 86
44 2 29 30
45 1 31 32
46 2 32 33
47 1 34 35
48 11 34 76
49 2 35 36
50 1 37 38
51 2 38 39
52 8 39 110
53 1 40 41
54 11 40 96
55 11 40 81
56 2 41 42
57 8 42 105
58 7 42 126
59 1 43 44
60 11 43 101
61 2 44 45
62 1 46 47
63 12 46 80
64 2 47 48
65 8 48 130
66 8 48 155
67 1 49 50
68 2 50 51
69 1 52 53
70 2 53 54
71 1 55 56
72 11 55 66
73 11 55 136
74 2 56 57
75 8 57 65
76 8 57 135
77 1 58 59
78 11 58 61
79 11 58 151
80 2 59 60
81 5 61 62
82 4 62 63
83 4 63 64
84 3 64 65
85 5 66 67
86 4 67 68
87 4 68 69
88 3 69 70
89 5 71 72
90 4 72 73
91 4 73 74
92 3 74 75
93 5 76 77
94 4 77 78
95 4 78 79
96 3 79 80
97 5 81 82
98 4 82 83
99 4 83 84
100 3 84 85
101 5 86 87
102 4 87 88
103 4 88 89
104 3 89 90
105 5 91 92
106 4 92 93
107 4 93 94
108 3 94 95
109 5 96 97
110 4 97 98
111 4 98 99
112 3 99 100
113 5 101 102
114 4 102 103
115 4 103 104
116 3 104 105
117 5 106 107
118 4 107 108
119 4 108 109
120 3 109 110
121 5 111 112
122 4 112 113
123 4 113 114
124 3 114 115
125 5 116 117
126 4 117 118
127 4 118 119
128 3 119 120
129 5 121 122
130 4 122 123
131 4 123 124
132 3 124 125
133 5 126 127
134 4 127 128
135 4 128 129
136 3 129 130
137 5 131 132
138 4 132 133
139 4 133 134
140 3 134 135
141 5 136 137
142 4 137 138
143 4 138 139
144 3 139 140
145 5 141 142
146 4 142 143
147 4 143 144
148 3 144 145
149 5 146 147
150 4 147 148
151 4 148 149
152 3 149 150
153 5 151 152
154 4 152 153
155 4 153 154
156 3 154 155
157 5 156 157
158 4 157 158
159 4 158 159
160 3 159 160
