# LAMMPS data file written by Ovito 3.0.0-dev349
160 atoms
160 bonds
6 atom types
12 bond types
-1.4266810415 1.4266810415 xlo xhi
-1.4266810415 1.4266810415 ylo yhi
-1.4266810415 1.4266810415 zlo zhi

Atoms # full

1 1 1 0.0 1.1734335423 -0.1365865171 0.4898601174 0 0 0
2 1 2 0.0 -1.3652652502 -0.3392172158 0.2144313753 1 0 0
3 1 3 0.0 -1.0962468386 -0.2479691803 -0.1864721179 1 0 0
4 1 1 0.0 -0.8559663892 1.0322393179 -1.1381243467 1 0 1
5 1 2 0.0 -1.2428438663 0.9550712109 1.4029648304 1 0 0
6 1 3 0.0 -1.3638576269 0.9732506275 1.000082016 1 0 0
7 1 1 0.0 -0.1245833337 0.1517869085 0.384647578 1 -1 0
8 1 2 0.0 -0.1496637911 -0.202456221 0.6362463236 1 -1 0
9 1 3 0.0 -0.1590749621 -0.4449262321 1.0803546906 1 -1 0
10 1 1 0.0 1.2855404615 1.262018919 -0.1882336289 -1 -1 0
11 1 2 0.0 1.1524709463 1.3323322535 -0.581638515 -1 -1 0
12 1 3 0.0 0.9593682885 -1.2263469696 -0.9409599304 -1 0 0
13 1 1 0.0 -1.2304923534 -0.3508429527 0.8086980581 0 0 0
14 1 2 0.0 -1.2528773546 0.0807895362 0.7613486648 0 0 0
15 1 3 0.0 -1.1949527264 0.5223286152 0.5184431076 0 0 0
16 1 1 0.0 -0.8720238805 -0.804648459 -0.937969327 -1 0 1
17 1 2 0.0 -0.5375987291 -0.5068830252 -1.0339858532 -1 0 1
18 1 3 0.0 -0.297770977 -0.1549447179 -0.9579274654 -1 0 1
19 1 1 0.0 0.5529916883 -1.2081003189 -0.5967742205 -1 0 1
20 1 2 0.0 0.6469177008 -0.8267962337 -0.7631816268 -1 0 1
21 1 3 0.0 0.7111660838 -0.5772868991 -1.1354556084 -1 0 1
22 1 1 0.0 0.9902029634 0.4259979725 -0.8120263219 0 0 1
23 1 2 0.0 1.3196444511 0.5330246091 -1.1848503351 0 0 1
24 1 3 0.0 -1.3455271721 0.3958556354 1.2836153507 1 0 0
25 1 1 0.0 1.1958384514 -0.0230057929 -0.0854519829 0 0 1
26 1 2 0.0 1.0145584345 -0.3870758116 0.0301389154 0 0 1
27 1 3 0.0 1.0776786804 -0.8795543313 0.1800744534 0 0 1
28 1 1 0.0 0.4894088805 -0.95331949 0.0407901481 0 0 0
29 1 2 0.0 0.5494958162 -0.7978292108 0.4681897163 0 0 0
30 1 3 0.0 0.3312192857 -0.689935565 0.8216069341 0 0 0
31 1 1 0.0 -0.9558137059 -0.0360466987 0.3643283546 0 1 0
32 1 2 0.0 -1.226039052 0.2215079367 0.0576452166 0 1 0
33 1 3 0.0 1.2225158215 0.5097281933 0.0128453663 -1 1 0
34 1 1 0.0 0.5985669494 0.5287081003 0.912468195 0 -1 -1
35 1 2 0.0 0.8187789917 0.2383962423 1.0822813511 0 -1 -1
36 1 3 0.0 1.2059971094 -0.1317049712 1.0663903952 0 -1 -1
37 1 1 0.0 1.0309571028 0.8264623284 1.3035606146 0 0 0
38 1 2 0.0 0.6509952545 1.0904142857 1.075112462 0 0 0
39 1 3 0.0 0.2384160757 1.0977774858 0.7936661839 0 0 0
40 1 1 0.0 0.2033279836 -1.1573091745 0.5003207326 0 0 0
41 1 2 0.0 5.73026e-04 1.3819774389 0.4062166214 0 -1 0
42 1 3 0.0 0.0022749801 0.9993246198 0.3131141663 0 -1 0
43 1 1 0.0 0.1338949203 -0.9280204773 -0.8050474524 0 0 0
44 1 2 0.0 -0.3551338613 -1.1076785326 -0.6860579252 0 0 0
45 1 3 0.0 -0.7332991362 -1.3265218735 -0.8006719351 0 0 0
46 1 1 0.0 -0.3390781879 -1.0668764114 0.3859639764 1 0 0
47 1 2 0.0 -0.5990940928 -0.7838489413 0.6675043106 1 0 0
48 1 3 0.0 -0.7883113027 -0.710581243 1.0661979914 1 0 0
49 1 1 0.0 -0.8716419935 -0.6556847692 0.0813460872 0 1 0
50 1 2 0.0 -0.4424606264 -0.8300752044 -0.1740569174 0 1 0
51 1 3 0.0 0.0290538799 -1.0028488636 -0.2067512125 0 1 0
52 1 1 0.0 -0.8722386956 0.2777382433 1.0480799675 0 1 0
53 1 2 0.0 -0.3368960619 0.2864708602 0.9411923289 0 1 0
54 1 3 0.0 0.1824936569 0.1248293519 0.9596713185 0 1 0
55 1 1 0.0 1.1972247362 -0.6355264187 -0.8909195065 -1 0 1
56 1 2 0.0 1.2603486776 -0.6326556802 -1.3087294102 -1 0 1
57 1 3 0.0 1.1269818544 -0.7237616181 1.2292381525 -1 0 0
58 1 1 0.0 1.4243741035 0.884195447 -0.8144140244 -1 0 0
59 1 2 0.0 -1.2829349041 1.2874310017 -1.0704489946 0 0 0
60 1 3 0.0 -1.0214004517 -1.3805837631 1.420353651 0 1 -1
61 1 4 0.0 -1.325932622 0.6918272376 -0.3495444357 1 0 0
62 1 2 0.0 -1.1993496418 0.897275269 0.1467684954 1 0 0
63 1 6 0.0 -1.1372169256 1.1928701401 0.514736414 1 0 0
64 1 2 0.0 -1.1780307293 -1.3232829571 0.7985801697 1 1 0
65 1 5 0.0 -1.3752590418 -0.9949359298 1.0055062771 1 1 0
66 1 4 0.0 0.900107801 -0.2808969617 -0.6152421236 -1 0 0
67 1 2 0.0 0.7281637192 0.0033635269 -0.2819829881 -1 0 0
68 1 6 0.0 0.761370182 0.2140499949 0.063316673 -1 0 0
69 1 2 0.0 0.9821502566 0.3789799511 0.475017339 -1 0 0
70 1 5 0.0 1.2275284529 0.4080939293 0.860253334 -1 0 0
71 1 4 0.0 -0.8940919042 0.8254417181 0.7765342593 0 -1 0
72 1 2 0.0 -0.6197375655 1.1994313002 0.9842569828 0 -1 0
73 1 6 0.0 -0.3305366337 -1.3439987898 1.0717015266 0 0 0
74 1 2 0.0 -0.0289508831 -1.0553828478 1.2552940845 0 0 0
75 1 5 0.0 0.3353414237 -0.8799533248 -1.4032766819 0 0 1
76 1 4 0.0 0.1395584196 0.6016849875 1.2815277576 0 0 -1
77 1 2 0.0 -0.1380714476 0.766343236 -1.287753582 0 0 0
78 1 6 0.0 -0.3682614863 1.0093799829 -0.8590387702 0 0 0
79 1 2 0.0 -0.4786644876 1.185572505 -0.427156657 0 0 0
80 1 5 0.0 -0.3889183402 -1.4236001968 -0.0430190414 0 1 0
81 1 4 0.0 0.7110606432 -1.309320569 0.4421899021 -1 1 0
82 1 2 0.0 1.2095735073 -1.3773133755 0.3595624566 -1 1 0
83 1 6 0.0 -1.2888503075 -1.312900424 0.1210819855 0 1 0
84 1 2 0.0 -1.0042990446 -1.1017642021 -0.1221079826 0 1 0
85 1 5 0.0 -0.8980832696 -0.9043114185 -0.4490605891 0 1 0
86 1 4 0.0 0.2977028489 1.4255062342 -0.1576846391 0 0 0
87 1 2 0.0 0.232136637 1.0107424259 -0.393817544 0 0 0
88 1 6 0.0 0.1032533944 0.644505918 -0.7665852308 0 0 0
89 1 2 0.0 0.0435293429 0.2827767134 -1.1050366163 0 0 0
90 1 5 0.0 -0.0326076746 -0.0921453983 -1.4089159966 0 0 0
91 1 4 0.0 -0.3314963281 0.0821442381 -0.5284475684 0 0 0
92 1 2 0.0 -0.1179758161 0.2747381032 -0.2144919783 0 0 0
93 1 6 0.0 0.1339876503 0.5256891847 -0.0094663072 0 0 0
94 1 2 0.0 0.5716915131 0.7727560997 0.167858243 0 0 0
95 1 5 0.0 0.9382449985 1.0219061375 0.1230061054 0 0 0
96 1 4 0.0 -6.451614e-04 -0.7166003585 0.3211679459 0 0 0
97 1 2 0.0 -0.3115858436 -0.3935101628 0.1441402137 0 0 0
98 1 6 0.0 -0.6575221419 -0.0360074341 -0.0889026895 0 0 0
99 1 2 0.0 -0.8754393458 0.2659151256 -0.3741434515 0 0 0
100 1 5 0.0 -0.9110167623 0.6680218577 -0.7458902001 0 0 0
101 1 4 0.0 0.3595016897 -0.6159757972 -0.4152591527 0 0 0
102 1 2 0.0 0.4173512757 -0.4322747886 -0.0799453184 0 0 0
103 1 6 0.0 0.4551153183 -0.1803420484 0.271710366 0 0 0
104 1 2 0.0 0.3997448087 0.1832190007 0.4776290953 0 0 0
105 1 5 0.0 0.256955415 0.5735806823 0.5264760256 0 0 0
106 1 4 0.0 -1.4149487019 0.1304757148 -0.5562714934 0 0 0
107 1 2 0.0 -1.1499894857 0.2963893116 -0.9787821174 0 0 0
108 1 6 0.0 -0.8604825735 0.5267897248 -1.2601246834 0 0 0
109 1 2 0.0 -0.5478464961 0.6898193955 1.2556130886 0 0 -1
110 1 5 0.0 -0.2201651782 0.9194508791 1.0374706984 0 0 -1
111 1 4 0.0 0.8751472831 -0.7764217854 -0.2791120112 -1 0 0
112 1 2 0.0 1.3245497942 -0.6387237906 -0.3903732896 -1 0 0
113 1 6 0.0 -1.2167294025 -0.506616354 -0.630941391 0 0 0
114 1 2 0.0 -1.0928096771 -0.2997073829 -1.0395532846 0 0 0
115 1 5 0.0 -1.1068195105 0.008859328 -1.4242352247 0 0 0
116 1 4 0.0 -1.2419701815 -0.8896499276 0.3644462228 -1 1 0
117 1 2 0.0 -0.9504769444 -1.0973607302 0.4089071155 -1 1 0
118 1 6 0.0 -0.7010477781 1.3849366903 0.4040931463 -1 0 0
119 1 2 0.0 -0.4797277749 1.0702815056 0.5052902699 -1 0 0
120 1 5 0.0 -0.2691123784 0.6431076527 0.5774170756 -1 0 0
121 1 4 0.0 -0.6428579092 -0.4548066556 -0.4038874209 1 0 0
122 1 2 0.0 -0.2004059702 -0.550313592 -0.605451405 1 0 0
123 1 6 0.0 0.1627745777 -0.5115801692 -1.0595383644 1 0 0
124 1 2 0.0 0.4402697384 -0.3557180762 1.275303483 1 0 -1
125 1 5 0.0 0.7136964798 -0.3412952721 0.8115588427 1 0 -1
126 1 4 0.0 -0.2565730512 0.8233502507 -0.1234836206 0 0 0
127 1 2 0.0 -0.4379742146 0.5945456028 -0.5525016785 0 0 0
128 1 6 0.0 -0.4751191735 0.3772473633 -0.9173783064 0 0 0
129 1 2 0.0 -0.5498838425 0.1021385267 -1.3828195333 0 0 0
130 1 5 0.0 -0.6411671638 -0.2361432612 1.2123659849 0 0 -1
131 1 4 0.0 0.6447309852 -0.0287297536 -1.1557092667 0 0 0
132 1 2 0.0 0.5850704908 0.3619560003 -1.2388056517 0 0 0
133 1 6 0.0 0.5395849347 0.8410522938 -1.2782249451 0 0 0
134 1 2 0.0 0.60042274 1.3675014973 -1.3790032864 0 0 0
135 1 5 0.0 0.8251681924 -1.0761294365 1.3992114067 0 1 -1
136 1 4 0.0 -1.4151639938 -1.0719796419 -0.6996561885 1 1 0
137 1 2 0.0 -1.2011170387 -1.3923594952 -0.5288242698 1 1 0
138 1 6 0.0 -1.0156040192 1.1203540564 -0.3434119523 1 0 0
139 1 2 0.0 -0.7921972871 0.7617843151 -0.1427824944 1 0 0
140 1 5 0.0 -0.5271604061 0.4158162177 0.102550149 1 0 0
141 1 4 0.0 0.8468518853 -1.2749767303 -0.1073251665 -1 0 0
142 1 2 0.0 0.7508170605 1.115149498 -0.3836385012 -1 -1 0
143 1 6 0.0 0.6209750175 0.70575279 -0.5397151709 -1 -1 0
144 1 2 0.0 0.4788164198 0.2683701217 -0.6544152498 -1 -1 0
145 1 5 0.0 0.1922372282 -0.0839123055 -0.7864979506 -1 -1 0
146 1 4 0.0 -0.4216100574 1.1709128618 -1.3534834385 0 -1 0
147 1 2 0.0 0.1346890926 1.3370014429 1.2605684996 0 -1 -1
148 1 6 0.0 0.50330019 -1.2448849678 0.9919236898 0 0 -1
149 1 2 0.0 0.8432072401 -0.9914056063 0.8297216892 0 0 -1
150 1 5 0.0 1.1754279137 -0.6916380525 0.7343800068 0 0 -1
151 1 4 0.0 0.9158495665 0.9854695797 -0.8827725649 0 -1 1
152 1 2 0.0 0.4926193357 1.1510016918 -0.852986455 0 -1 1
153 1 6 0.0 0.0839341655 1.3920602798 -0.9646263719 0 -1 1
154 1 2 0.0 -0.2051481605 -1.2571564913 -1.1726568937 0 0 1
155 1 5 0.0 -0.5565119982 -1.0237199068 1.4157800674 0 0 0
156 1 4 0.0 -1.2512234449 -0.9833243489 -1.17773211 1 0 0
157 1 2 0.0 1.3535294533 -1.1620633602 -1.3987767696 0 0 0
158 1 6 0.0 1.0606445074 -1.4112030268 1.1467977762 0 0 -1
159 1 2 0.0 1.0239491463 1.1720093489 0.7446576357 0 -1 -1
160 1 5 0.0 1.2116106749 0.8357412815 0.506875515 0 -1 -1

Bonds

1 1 1 2
2 12 1 125
3 2 2 3
4 7 3 121
5 1 4 5
6 11 4 146
7 12 4 100
8 2 5 6
9 1 7 8
10 12 7 140
11 12 7 120
12 2 8 9
13 8 9 90
14 1 10 11
15 12 10 95
16 2 11 12
17 1 13 14
18 12 13 150
19 2 14 15
20 8 15 160
21 7 15 71
22 1 16 17
23 12 16 85
24 11 16 156
25 2 17 18
26 8 18 145
27 7 18 91
28 1 19 20
29 2 20 21
30 8 21 75
31 7 21 131
32 1 22 23
33 2 23 24
34 8 24 70
35 8 24 115
36 1 25 26
37 11 25 106
38 2 26 27
39 7 27 141
40 7 27 116
41 1 28 29
42 11 28 111
43 11 28 86
44 2 29 30
45 1 31 32
46 2 32 33
47 1 34 35
48 11 34 76
49 2 35 36
50 1 37 38
51 2 38 39
52 8 39 110
53 1 40 41
54 11 40 96
55 11 40 81
56 2 41 42
57 8 42 105
58 7 42 126
59 1 43 44
60 11 43 101
61 2 44 45
62 1 46 47
63 12 46 80
64 2 47 48
65 8 48 130
66 8 48 155
67 1 49 50
68 2 50 51
69 1 52 53
70 2 53 54
71 1 55 56
72 11 55 66
73 11 55 136
74 2 56 57
75 8 57 65
76 8 57 135
77 1 58 59
78 11 58 61
79 11 58 151
80 2 59 60
81 5 61 62
82 4 62 63
83 4 63 64
84 3 64 65
85 5 66 67
86 4 67 68
87 4 68 69
88 3 69 70
89 5 71 72
90 4 72 73
91 4 73 74
92 3 74 75
93 5 76 77
94 4 77 78
95 4 78 79
96 3 79 80
97 5 81 82
98 4 82 83
99 4 83 84
100 3 84 85
101 5 86 87
102 4 87 88
103 4 88 89
104 3 89 90
105 5 91 92
106 4 92 93
107 4 93 94
108 3 94 95
109 5 96 97
110 4 97 98
111 4 98 99
112 3 99 100
113 5 101 102
114 4 102 103
115 4 103 104
116 3 104 105
117 5 106 107
118 4 107 108
119 4 108 109
120 3 109 110
121 5 111 112
122 4 112 113
123 4 113 114
124 3 114 115
125 5 116 117
126 4 117 118
127 4 118 119
128 3 119 120
129 5 121 122
130 4 122 123
131 4 123 124
132 3 124 125
133 5 126 127
134 4 127 128
135 4 128 129
136 3 129 130
137 5 131 132
138 4 132 133
139 4 133 134
140 3 134 135
141 5 136 137
142 4 137 138
143 4 138 139
144 3 139 140
145 5 141 142
146 4 142 143
147 4 143 144
148 3 144 145
149 5 146 147
150 4 147 148
151 4 148 149
152 3 149 150
153 5 151 152
154 4 152 153
155 4 153 154
156 3 154 155
157 5 156 157
158 4 157 158
159 4 158 159
160 3 159 160
