# LAMMPS data file written by Ovito 3.0.0-dev349
160 atoms
160 bonds
6 atom types
12 bond types
-1.424546361 1.424546361 xlo xhi
-1.424546361 1.424546361 ylo yhi
-1.424546361 1.424546361 zlo zhi

Atoms # full

1 1 1 0.0 0.9833086133 -0.2016017586 0.4033674598 0 0 0
2 1 2 0.0 -1.3153814077 -0.3299392164 0.1716912538 1 0 0
3 1 3 0.0 -1.0282530785 -0.4865562916 -0.2071787417 1 0 0
4 1 1 0.0 -0.7994915247 0.934523046 -1.0836191177 1 0 1
5 1 2 0.0 -1.1804499626 0.845961988 1.4017729759 1 0 0
6 1 3 0.0 -1.385332346 0.9227669239 0.9791299105 1 0 0
7 1 1 0.0 -0.1958408058 0.1707283258 0.4067391455 1 -1 0
8 1 2 0.0 -0.3383258581 -0.152087912 0.656984508 1 -1 0
9 1 3 0.0 -0.3048734665 -0.4513330758 1.1144638062 1 -1 0
10 1 1 0.0 1.4016822577 1.2862603664 -0.2268341631 -1 -1 0
11 1 2 0.0 1.1528570652 -1.4220609665 -0.5676053166 -1 0 0
12 1 3 0.0 1.1548182964 -1.3386032581 -0.9183652401 -1 0 0
13 1 1 0.0 -1.4043585062 -0.5265698433 0.6595419645 0 0 0
14 1 2 0.0 -1.4139457941 -0.0409113914 0.6216845512 0 0 0
15 1 3 0.0 -1.2596210241 0.3589091897 0.4404115081 0 0 0
16 1 1 0.0 -0.7578064799 -0.7838906646 -0.9242172241 -1 0 1
17 1 2 0.0 -0.5807489157 -0.3868014812 -0.999384284 -1 0 1
18 1 3 0.0 -0.2297725081 -0.0722301081 -0.8718197346 -1 0 1
19 1 1 0.0 0.6523541212 -1.1457151175 -0.5799209476 -1 0 1
20 1 2 0.0 0.7334406376 -0.9985557199 -0.8528751731 -1 0 1
21 1 3 0.0 0.6306331754 -0.6790978312 -1.2213016748 -1 0 1
22 1 1 0.0 1.0778706074 0.5215458274 -0.849019587 0 0 1
23 1 2 0.0 1.2403907776 0.5997190475 -1.2875562906 0 0 1
24 1 3 0.0 -1.4045221806 0.389400214 1.1714544296 1 0 0
25 1 1 0.0 1.0880969763 0.0500504598 -0.5630241632 0 0 1
26 1 2 0.0 1.0692974329 -0.3096019626 -0.1298146397 0 0 1
27 1 3 0.0 1.1911104918 -0.7536900043 0.1126294062 0 0 1
28 1 1 0.0 0.5491474271 -0.9666699171 -0.0568946153 0 0 0
29 1 2 0.0 0.5027247071 -0.7952524424 0.3628328741 0 0 0
30 1 3 0.0 0.1986272633 -0.6978878379 0.7842790484 0 0 0
31 1 1 0.0 -1.1728184223 0.039387472 -0.4481926262 0 1 0
32 1 2 0.0 1.4121795893 0.2079129219 -0.1293778419 -1 1 0
33 1 3 0.0 1.0850639343 0.448058188 -0.0224256832 -1 1 0
34 1 1 0.0 0.4277867973 0.5511957407 1.18676126 0 -1 -1
35 1 2 0.0 0.830539465 0.3070331514 1.2220761776 0 -1 -1
36 1 3 0.0 1.0048005581 -0.0613438897 1.2258576155 0 -1 -1
37 1 1 0.0 1.2169215679 1.1219648123 -1.3493907452 0 0 1
38 1 2 0.0 0.9143226147 0.8629199862 1.1689056158 0 0 0
39 1 3 0.0 0.6015367508 0.9122241139 0.8158340454 0 0 0
40 1 1 0.0 0.2084034532 -1.2431946993 0.5527525544 0 0 0
41 1 2 0.0 0.0600868836 1.3197205067 0.6011847258 0 -1 0
42 1 3 0.0 0.0830117017 0.9476477504 0.4501475394 0 -1 0
43 1 1 0.0 0.179501012 -0.9244672656 -0.7747150064 0 0 0
44 1 2 0.0 -0.2658114433 -1.1057745218 -0.7006260753 0 0 0
45 1 3 0.0 -0.6389265656 -1.3440984488 -0.8104962111 0 0 0
46 1 1 0.0 -0.349294126 -1.0821363926 0.6109223366 1 0 0
47 1 2 0.0 -0.6911644936 -0.8265047669 0.7587168217 1 0 0
48 1 3 0.0 -0.8766274452 -0.6206868291 1.1283205748 1 0 0
49 1 1 0.0 -0.8507277966 -0.5276196599 0.3416806161 0 1 0
50 1 2 0.0 -0.5870626569 -0.8103380799 0.1526366323 0 1 0
51 1 3 0.0 -0.2292069346 -0.8726800084 -0.1239944994 0 1 0
52 1 1 0.0 -0.9235498309 0.0325416811 0.7339752316 0 1 0
53 1 2 0.0 -0.5065411329 0.2809759676 0.9831418991 0 1 0
54 1 3 0.0 -0.112489 0.3165306747 1.1416629553 0 1 0
55 1 1 0.0 1.1878020763 -0.4998779893 -0.9657366276 -1 0 1
56 1 2 0.0 1.1687648296 -0.5171900392 -1.3419283628 -1 0 1
57 1 3 0.0 1.0871983767 -0.7208266258 1.2123258114 -1 0 0
58 1 1 0.0 1.41073668 0.957978487 -0.8667968512 -1 0 0
59 1 2 0.0 -1.1992633343 1.2672641277 -1.0763496161 0 0 0
60 1 3 0.0 -1.0148215294 1.3710131645 1.4156671762 0 0 -1
61 1 4 0.0 -1.3185112476 0.8281726241 -0.3921154141 1 0 0
62 1 2 0.0 -1.1886304617 0.9438920617 0.0753719881 1 0 0
63 1 6 0.0 -1.1384328604 1.1438750029 0.5040269494 1 0 0
64 1 2 0.0 -1.2913837433 1.4115376472 0.7808099389 1 0 0
65 1 5 0.0 1.4236778021 -1.0230354071 1.0002989769 0 1 0
66 1 4 0.0 0.7918137908 -0.3857330084 -0.661010623 -1 0 0
67 1 2 0.0 0.6082273126 -0.1813253611 -0.3723911345 -1 0 0
68 1 6 0.0 0.6153068542 0.0848806053 0.0468011312 -1 0 0
69 1 2 0.0 0.7945647836 0.3358839154 0.4318065047 -1 0 0
70 1 5 0.0 1.0931085348 0.3537653983 0.7860137224 -1 0 0
71 1 4 0.0 -0.992094934 0.658336103 0.744718492 0 -1 0
72 1 2 0.0 -0.8123334646 1.0398606062 1.0136178732 0 -1 0
73 1 6 0.0 -0.5879538655 -1.3549427986 1.0973018408 0 0 0
74 1 2 0.0 -0.2194461077 -1.0108631849 1.1295782328 0 0 0
75 1 5 0.0 0.1906558275 -0.8494896889 1.3684871197 0 0 0
76 1 4 0.0 0.1189078987 0.775873661 -1.3137741089 0 0 0
77 1 2 0.0 -0.1107883677 0.9828876257 -0.9641005993 0 0 0
78 1 6 0.0 -0.2770910263 1.1737052202 -0.5885114074 0 0 0
79 1 2 0.0 -0.3814967573 1.3695274591 -0.2167237103 0 0 0
80 1 5 0.0 -0.3745324612 -1.2920655012 0.1547335237 0 1 0
81 1 4 0.0 0.6874272227 -1.3305910826 0.4437228143 -1 1 0
82 1 2 0.0 1.1655230522 -1.3695445061 0.3758772612 -1 1 0
83 1 6 0.0 -1.2995728254 -1.34357512 0.2068543285 0 1 0
84 1 2 0.0 -0.9364262223 -1.2439334393 -0.094841674 0 1 0
85 1 5 0.0 -0.7454610467 -0.9966295362 -0.4680028856 0 1 0
86 1 4 0.0 0.35067904 1.4013206959 -0.2374702245 0 0 0
87 1 2 0.0 0.2210006118 0.8945194483 -0.5254667401 0 0 0
88 1 6 0.0 0.1926907897 0.5766409039 -0.8283793926 0 0 0
89 1 2 0.0 0.0939323083 0.2474626303 -1.1747096777 0 0 0
90 1 5 0.0 -0.0643420443 -0.1056899354 1.4068640471 0 0 -1
91 1 4 0.0 -0.1775542647 0.1112637073 -0.3922978342 0 0 0
92 1 2 0.0 0.0313950926 0.3063679338 -0.0447674543 0 0 0
93 1 6 0.0 0.3317731321 0.5585404038 0.0965603739 0 0 0
94 1 2 0.0 0.7459158897 0.8185972571 0.1358958781 0 0 0
95 1 5 0.0 1.0928913355 0.9948577881 0.0596497767 0 0 0
96 1 4 0.0 -0.0654956549 -0.7569362521 0.3688232303 0 0 0
97 1 2 0.0 -0.3135409057 -0.3565692306 0.2073816061 0 0 0
98 1 6 0.0 -0.5424590111 -0.070314683 -0.0070460695 0 0 0
99 1 2 0.0 -0.6929178834 0.2512675524 -0.4176236987 0 0 0
100 1 5 0.0 -0.7891005278 0.5345548987 -0.7275552154 0 0 0
101 1 4 0.0 0.2560749352 -0.6066101193 -0.3708801568 0 0 0
102 1 2 0.0 0.2378151268 -0.4211348891 0.0723450556 0 0 0
103 1 6 0.0 0.2854229808 -0.1913438141 0.4450112283 0 0 0
104 1 2 0.0 0.3052422702 0.1061335355 0.6981381178 0 0 0
105 1 5 0.0 0.3113965094 0.4663796723 0.6509743929 0 0 0
106 1 4 0.0 -1.3519209623 0.1741052568 -0.9404729605 0 0 0
107 1 2 0.0 -1.0069304705 0.35712111 -1.1983503103 0 0 0
108 1 6 0.0 -0.6987112761 0.5991528034 1.3477823734 0 0 -1
109 1 2 0.0 -0.3185890913 0.7697069645 1.157402277 0 0 -1
110 1 5 0.0 0.1092522368 0.8639057279 0.9612833858 0 0 -1
111 1 4 0.0 0.9695011973 -0.78343606 -0.3535203934 -1 0 0
112 1 2 0.0 1.3681036234 -0.5758311152 -0.4866076708 -1 0 0
113 1 6 0.0 -1.1451508999 -0.3898053765 -0.7763251662 0 0 0
114 1 2 0.0 -1.1181343794 -0.2457266897 -1.1259744167 0 0 0
115 1 5 0.0 -1.2328506708 -0.0605105609 1.3772630692 0 0 -1
116 1 4 0.0 -1.2425928116 -0.8693915606 0.3476757407 -1 1 0
117 1 2 0.0 -0.9209704995 -1.1751424074 0.4747796357 -1 1 0
118 1 6 0.0 -0.6676501632 1.4030902386 0.556783855 -1 0 0
119 1 2 0.0 -0.4237696528 1.0659563541 0.669056356 -1 0 0
120 1 5 0.0 -0.2652860284 0.6209177971 0.6329119205 -1 0 0
121 1 4 0.0 -0.5464449525 -0.4751472473 -0.3886106312 1 0 0
122 1 2 0.0 -0.1566846073 -0.5229720473 -0.696129024 1 0 0
123 1 6 0.0 0.1386781931 -0.4782181978 -1.0852774382 1 0 0
124 1 2 0.0 0.4008561075 -0.3738811016 1.2478512526 1 0 -1
125 1 5 0.0 0.7155424356 -0.279523164 0.8345054388 1 0 -1
126 1 4 0.0 -0.1466464698 0.8394069076 -0.0269166455 0 0 0
127 1 2 0.0 -0.2367649972 0.6570115089 -0.4243016541 0 0 0
128 1 6 0.0 -0.3109620512 0.4620081782 -0.8591285348 0 0 0
129 1 2 0.0 -0.553147316 0.1635716558 -1.2058364153 0 0 0
130 1 5 0.0 -0.6707071662 -0.1459988058 1.3547927141 0 0 -1
131 1 4 0.0 0.6072773933 -0.1508475691 -1.1626354456 0 0 0
132 1 2 0.0 0.5865903497 0.2930928469 -1.1470005512 0 0 0
133 1 6 0.0 0.6259652972 0.7643584013 -1.2117043734 0 0 0
134 1 2 0.0 0.6963274479 1.3162354231 -1.3472305536 0 0 0
135 1 5 0.0 0.8078644872 -1.0957626104 1.3992779255 0 1 -1
136 1 4 0.0 -1.420933485 -0.9247105718 -0.8378672004 1 1 0
137 1 2 0.0 -1.1939014196 -1.2482649088 -0.6855635643 1 1 0
138 1 6 0.0 -0.9105703831 1.2247552872 -0.4297226071 1 0 0
139 1 2 0.0 -0.6898961067 0.7976170182 -0.2567588687 1 0 0
140 1 5 0.0 -0.4726268351 0.4694173038 0.0333775431 1 0 0
141 1 4 0.0 0.9772833586 -1.2574430704 -0.0614847615 -1 0 0
142 1 2 0.0 0.7822418809 1.0908985138 -0.313577652 -1 -1 0
143 1 6 0.0 0.7227081656 0.6790434718 -0.4626777768 -1 -1 0
144 1 2 0.0 0.5705755949 0.2475923896 -0.5936490297 -1 -1 0
145 1 5 0.0 0.2524640858 -0.0369847678 -0.8155251145 -1 -1 0
146 1 4 0.0 -0.4570474327 1.2070888281 -1.3842946291 0 -1 0
147 1 2 0.0 -0.0639846474 1.3716980219 1.2629708052 0 -1 -1
148 1 6 0.0 0.2838957608 -1.2774473429 1.0396176577 0 0 -1
149 1 2 0.0 0.6310483217 -0.9628626108 0.8499426246 0 0 -1
150 1 5 0.0 0.9878374934 -0.7825060487 0.7038818598 0 0 -1
151 1 4 0.0 0.9059489965 1.0439121723 -0.8620671034 0 -1 1
152 1 2 0.0 0.5042034388 1.2405846119 -0.8434382677 0 -1 1
153 1 6 0.0 0.1023859307 -1.3959733248 -1.015455842 0 0 1
154 1 2 0.0 -0.2743128836 -1.1457982063 -1.2184706926 0 0 1
155 1 5 0.0 -0.5985510945 -0.9474511743 -1.3882694244 0 0 1
156 1 4 0.0 -1.1088283062 -0.9779922366 -1.2674226761 1 0 0
157 1 2 0.0 1.405313611 -1.2367374897 1.424339056 0 0 -1
158 1 6 0.0 1.1092346907 1.3959532976 1.0823059082 0 -1 -1
159 1 2 0.0 1.0318669081 1.1278700829 0.701926589 0 -1 -1
160 1 5 0.0 1.2312169075 0.7083569169 0.4713317454 0 -1 -1

Bonds

1 1 1 2
2 12 1 125
3 2 2 3
4 7 3 121
5 1 4 5
6 11 4 146
7 12 4 100
8 2 5 6
9 1 7 8
10 12 7 140
11 12 7 120
12 2 8 9
13 8 9 90
14 1 10 11
15 12 10 95
16 2 11 12
17 1 13 14
18 12 13 150
19 2 14 15
20 8 15 160
21 7 15 71
22 1 16 17
23 12 16 85
24 11 16 156
25 2 17 18
26 8 18 145
27 7 18 91
28 1 19 20
29 2 20 21
30 8 21 75
31 7 21 131
32 1 22 23
33 2 23 24
34 8 24 70
35 8 24 115
36 1 25 26
37 11 25 106
38 2 26 27
39 7 27 141
40 7 27 116
41 1 28 29
42 11 28 111
43 11 28 86
44 2 29 30
45 1 31 32
46 2 32 33
47 1 34 35
48 11 34 76
49 2 35 36
50 1 37 38
51 2 38 39
52 8 39 110
53 1 40 41
54 11 40 96
55 11 40 81
56 2 41 42
57 8 42 105
58 7 42 126
59 1 43 44
60 11 43 101
61 2 44 45
62 1 46 47
63 12 46 80
64 2 47 48
65 8 48 130
66 8 48 155
67 1 49 50
68 2 50 51
69 1 52 53
70 2 53 54
71 1 55 56
72 11 55 66
73 11 55 136
74 2 56 57
75 8 57 65
76 8 57 135
77 1 58 59
78 11 58 61
79 11 58 151
80 2 59 60
81 5 61 62
82 4 62 63
83 4 63 64
84 3 64 65
85 5 66 67
86 4 67 68
87 4 68 69
88 3 69 70
89 5 71 72
90 4 72 73
91 4 73 74
92 3 74 75
93 5 76 77
94 4 77 78
95 4 78 79
96 3 79 80
97 5 81 82
98 4 82 83
99 4 83 84
100 3 84 85
101 5 86 87
102 4 87 88
103 4 88 89
104 3 89 90
105 5 91 92
106 4 92 93
107 4 93 94
108 3 94 95
109 5 96 97
110 4 97 98
111 4 98 99
112 3 99 100
113 5 101 102
114 4 102 103
115 4 103 104
116 3 104 105
117 5 106 107
118 4 107 108
119 4 108 109
120 3 109 110
121 5 111 112
122 4 112 113
123 4 113 114
124 3 114 115
125 5 116 117
126 4 117 118
127 4 118 119
128 3 119 120
129 5 121 122
130 4 122 123
131 4 123 124
132 3 124 125
133 5 126 127
134 4 127 128
135 4 128 129
136 3 129 130
137 5 131 132
138 4 132 133
139 4 133 134
140 3 134 135
141 5 136 137
142 4 137 138
143 4 138 139
144 3 139 140
145 5 141 142
146 4 142 143
147 4 143 144
148 3 144 145
149 5 146 147
150 4 147 148
151 4 148 149
152 3 149 150
153 5 151 152
154 4 152 153
155 4 153 154
156 3 154 155
157 5 156 157
158 4 157 158
159 4 158 159
160 3 159 160
