# LAMMPS data file written by Ovito 3.0.0-dev349
160 atoms
160 bonds
6 atom types
12 bond types
-1.417228818 1.417228818 xlo xhi
-1.417228818 1.417228818 ylo yhi
-1.417228818 1.417228818 zlo zhi

Atoms # full

1 1 1 0.0 1.056645155 -0.2709154487 0.4063176513 0 0 0
2 1 2 0.0 -1.3068395853 -0.3719603717 0.1483541429 1 0 0
3 1 3 0.0 -0.9990530014 -0.6490112543 -0.2327246517 1 0 0
4 1 1 0.0 -0.8821306825 0.9982123971 -1.1544075012 1 0 1
5 1 2 0.0 -1.2161720991 0.9439898729 1.360363245 1 0 0
6 1 3 0.0 -1.3765385151 1.0531092882 1.0488520861 1 0 0
7 1 1 0.0 -0.3105764985 0.0972630903 0.4011138976 1 -1 0
8 1 2 0.0 -0.3435999453 -0.2187503129 0.7049583793 1 -1 0
9 1 3 0.0 -0.1114730835 -0.3575871289 1.1125482321 1 -1 0
10 1 1 0.0 1.3452877998 1.3203984499 -0.3699138463 -1 -1 0
11 1 2 0.0 1.100467205 -1.3246818781 -0.61563164 -1 0 0
12 1 3 0.0 1.0115036964 -1.2860144377 -1.0197591782 -1 0 0
13 1 1 0.0 -1.3611704111 -0.4930713177 0.6453998089 0 0 0
14 1 2 0.0 1.4037890434 -0.0422855467 0.694447577 -1 0 0
15 1 3 0.0 -1.3736801147 0.4404657185 0.5319478512 0 0 0
16 1 1 0.0 -0.8283730149 -0.6537365913 -0.9604501724 -1 0 1
17 1 2 0.0 -0.7062310576 -0.2307142615 -0.8164893985 -1 0 1
18 1 3 0.0 -0.3216065168 -0.0112167923 -0.614664197 -1 0 1
19 1 1 0.0 0.5730198622 -1.1230098009 -0.4927003086 -1 0 1
20 1 2 0.0 0.6970931292 -0.9029958248 -0.8351250291 -1 0 1
21 1 3 0.0 0.5553408861 -0.645380199 -1.1610270739 -1 0 1
22 1 1 0.0 1.0771644115 0.4804522991 -0.9062337875 0 0 1
23 1 2 0.0 1.1736661196 0.5548090935 -1.3119844198 0 0 1
24 1 3 0.0 1.282659173 0.4400333762 1.0725198984 0 0 0
25 1 1 0.0 1.1701426506 0.0634789094 -0.4881163239 0 0 1
26 1 2 0.0 1.1016212702 -0.2461142987 -0.1382088512 0 0 1
27 1 3 0.0 1.1930875778 -0.7707147598 0.0677853227 0 0 1
28 1 1 0.0 0.5377723575 -0.8512939215 0.0790401921 0 0 0
29 1 2 0.0 0.4675189257 -0.6776337028 0.4567075968 0 0 0
30 1 3 0.0 0.2102741003 -0.6809137464 0.8632948399 0 0 0
31 1 1 0.0 -0.9112385511 0.0443471409 0.5227589607 0 1 0
32 1 2 0.0 -1.0763667822 0.2429100871 0.180657208 0 1 0
33 1 3 0.0 1.3263715506 0.4004618526 -0.0559363514 -1 1 0
34 1 1 0.0 0.4895923734 0.237589851 1.0216119289 0 -1 -1
35 1 2 0.0 0.9114634395 0.1280430108 1.2577871084 0 -1 -1
36 1 3 0.0 1.085118413 -8.564817e-04 -1.208347559 0 -1 0
37 1 1 0.0 1.1344585419 1.0997419357 -1.3574135303 0 0 1
38 1 2 0.0 0.9292550683 0.854170084 1.1146273613 0 0 0
39 1 3 0.0 0.5902667642 0.8528044224 0.7717350721 0 0 0
40 1 1 0.0 0.2937781513 -1.1760162115 0.4959899485 0 0 0
41 1 2 0.0 0.1106306389 1.2906955481 0.5513994098 0 -1 0
42 1 3 0.0 0.0296854004 0.8866823316 0.4369789958 0 -1 0
43 1 1 0.0 0.0725679696 -0.8657743931 -0.7910702229 0 0 0
44 1 2 0.0 -0.3976540565 -1.0345630646 -0.7969149351 0 0 0
45 1 3 0.0 -0.7341901064 -1.3250684738 -1.0238974094 0 0 0
46 1 1 0.0 -0.2717819512 -1.1313560009 0.5679661036 1 0 0
47 1 2 0.0 -0.5671213865 -0.7952030897 0.8493193984 1 0 0
48 1 3 0.0 -0.6681553721 -0.6925853491 1.2134566307 1 0 0
49 1 1 0.0 -0.8160263896 -0.5747603178 0.4571675062 0 1 0
50 1 2 0.0 -0.5984686017 -0.8230433464 0.0159152187 0 1 0
51 1 3 0.0 -0.2445490956 -0.9587345123 -0.2887783051 0 1 0
52 1 1 0.0 -0.9283912182 -0.3192799389 0.9244371057 0 1 0
53 1 2 0.0 -0.6481906176 0.1085171178 0.987449348 0 1 0
54 1 3 0.0 -0.2504175901 0.3343382478 1.0773699284 0 1 0
55 1 1 0.0 1.1163957119 -0.552832365 -1.0057179928 -1 0 1
56 1 2 0.0 1.1483616829 -0.5245332718 -1.3106992245 -1 0 1
57 1 3 0.0 1.0739023685 -0.7048797011 1.1995705366 -1 0 0
58 1 1 0.0 1.4154621363 0.9298379421 -0.9367267489 -1 0 0
59 1 2 0.0 -1.236798048 1.3463931084 -1.1684808731 0 0 0
60 1 3 0.0 -1.0138303041 -1.2734069824 1.3357237577 0 1 -1
61 1 4 0.0 -1.3396537304 0.7574158311 -0.4857412279 1 0 0
62 1 2 0.0 -1.2133327723 0.8320764303 0.0243018288 1 0 0
63 1 6 0.0 -1.1534731388 1.0976048708 0.4568653405 1 0 0
64 1 2 0.0 -1.1269264221 -1.3807797432 0.7990151644 1 1 0
65 1 5 0.0 -1.3139299154 -0.9341245294 0.9402382374 1 1 0
66 1 4 0.0 0.8011092544 -0.2695862055 -0.6900698543 -1 0 0
67 1 2 0.0 0.660933733 -0.0993388146 -0.4102448821 -1 0 0
68 1 6 0.0 0.5844339728 0.0098623233 0.0206884965 -1 0 0
69 1 2 0.0 0.7111474276 0.1498162448 0.3935692906 -1 0 0
70 1 5 0.0 0.943742156 0.2528586388 0.7361385822 -1 0 0
71 1 4 0.0 -1.011051774 0.6783156395 0.8121241331 0 -1 0
72 1 2 0.0 -0.7994478941 1.1141115427 0.9788229465 0 -1 0
73 1 6 0.0 -0.4802631736 -1.3421764374 1.0552101135 0 0 0
74 1 2 0.0 -0.0835553855 -1.0505230427 1.114123106 0 0 0
75 1 5 0.0 0.2138350904 -0.8841691613 1.344316721 0 0 0
76 1 4 0.0 0.1988036186 0.5946382284 1.2567945719 0 0 -1
77 1 2 0.0 -0.0031850548 0.8645806313 -1.2066944838 0 0 0
78 1 6 0.0 -0.2063218504 1.1212848425 -0.8329206705 0 0 0
79 1 2 0.0 -0.3851456642 1.3360383511 -0.3187632263 0 0 0
80 1 5 0.0 -0.3598475158 -1.3667051792 0.1180868819 0 1 0
81 1 4 0.0 0.779587388 -1.2993127108 0.421921134 -1 1 0
82 1 2 0.0 1.2182966471 -1.3755069971 0.3397831321 -1 1 0
83 1 6 0.0 -1.2792298794 -1.3400633335 0.0907524526 0 1 0
84 1 2 0.0 -0.9906425476 -1.2320827246 -0.2100061625 0 1 0
85 1 5 0.0 -0.8252742887 -1.023080349 -0.5601370931 0 1 0
86 1 4 0.0 0.4033522904 -1.3220604658 -0.0414759889 0 1 0
87 1 2 0.0 0.3117077053 1.1625851393 -0.3035211861 0 0 0
88 1 6 0.0 0.1863974184 0.8193176985 -0.624026835 0 0 0
89 1 2 0.0 0.1215953752 0.4311578572 -1.0194556713 0 0 0
90 1 5 0.0 0.0170025211 0.0430330448 -1.3477534056 0 0 0
91 1 4 0.0 -0.1312481761 0.0618945323 -0.1265566647 0 0 0
92 1 2 0.0 0.1116201729 0.2863436341 0.1694030315 0 0 0
93 1 6 0.0 0.4048952162 0.527187407 0.2652256191 0 0 0
94 1 2 0.0 0.7220913768 0.7934868932 0.2281752378 0 0 0
95 1 5 0.0 1.1009075642 1.0267670155 0.0670431927 0 0 0
96 1 4 0.0 8.534921e-04 -0.7704449296 0.2912077606 0 0 0
97 1 2 0.0 -0.3596135974 -0.4004355371 0.1516928226 0 0 0
98 1 6 0.0 -0.7060990334 -0.0633237511 -0.1182829663 0 0 0
99 1 2 0.0 -0.7937981486 0.2800660431 -0.4606528282 0 0 0
100 1 5 0.0 -0.8914368153 0.6091807485 -0.7846749425 0 0 0
101 1 4 0.0 0.2214356065 -0.5839854479 -0.4155317843 0 0 0
102 1 2 0.0 0.2379641533 -0.4141558111 -0.087230891 0 0 0
103 1 6 0.0 0.2151526809 -0.2377194017 0.3361548185 0 0 0
104 1 2 0.0 0.2342615277 0.0247357283 0.6230210066 0 0 0
105 1 5 0.0 0.1250571758 0.4586706758 0.7156623602 0 0 0
106 1 4 0.0 -1.3467372656 0.1983517706 -0.8978447318 0 0 0
107 1 2 0.0 -0.9916924834 0.3935204148 -1.2665156126 0 0 0
108 1 6 0.0 -0.6795638204 0.5960213542 1.3240311146 0 0 -1
109 1 2 0.0 -0.3338103294 0.816967845 1.0755339861 0 0 -1
110 1 5 0.0 0.1075593829 0.9365736842 0.9312298894 0 0 -1
111 1 4 0.0 0.8519533277 -0.6700230837 -0.3081297874 -1 0 0
112 1 2 0.0 1.213992238 -0.5796249509 -0.504314959 -1 0 0
113 1 6 0.0 -1.2898665667 -0.4473990202 -0.7685705423 0 0 0
114 1 2 0.0 -1.159704566 -0.2830477655 -1.1457095146 0 0 0
115 1 5 0.0 -1.2799750566 -0.0051206765 1.3135740757 0 0 -1
116 1 4 0.0 -1.1834710836 -0.9219275713 0.3166646361 -1 1 0
117 1 2 0.0 -0.81795609 -1.1375997066 0.4727168083 -1 1 0
118 1 6 0.0 -0.670953393 1.3285264969 0.5355426669 -1 0 0
119 1 2 0.0 -0.5126840472 0.9287167788 0.5753343105 -1 0 0
120 1 5 0.0 -0.4237774312 0.5435114503 0.629268229 -1 0 0
121 1 4 0.0 -0.5200477242 -0.6072911024 -0.5157495141 1 0 0
122 1 2 0.0 -0.2051532865 -0.4543585479 -0.8404026628 1 0 0
123 1 6 0.0 0.036682386 -0.4433223605 -1.1642930508 1 0 0
124 1 2 0.0 0.4141625464 -0.3775115609 1.28003335 1 0 -1
125 1 5 0.0 0.7582826614 -0.3134874403 0.8699203134 1 0 -1
126 1 4 0.0 -0.1211127266 0.7409476042 -0.0461895689 0 0 0
127 1 2 0.0 -0.2881903648 0.6035647988 -0.5007477403 0 0 0
128 1 6 0.0 -0.3754537702 0.4468739033 -0.8330671191 0 0 0
129 1 2 0.0 -0.5090349913 0.1127631888 -1.1968517303 0 0 0
130 1 5 0.0 -0.5568525791 -0.2569368184 1.4119749069 0 0 -1
131 1 4 0.0 0.6117392182 -0.1369779408 -1.138112545 0 0 0
132 1 2 0.0 0.6292728782 0.3735947907 -1.1833320856 0 0 0
133 1 6 0.0 0.577992022 0.8702368736 -1.2809530497 0 0 0
134 1 2 0.0 0.5881789923 -1.402639389 -1.3502281904 0 1 0
135 1 5 0.0 0.7646881938 -1.0455471277 1.4012247324 0 1 -1
136 1 4 0.0 1.3917099237 -0.9562537074 -0.8223062754 0 1 0
137 1 2 0.0 -1.1977164745 -1.3091188669 -0.6875293851 1 1 0
138 1 6 0.0 -0.9653255343 1.1292365789 -0.5592675209 1 0 0
139 1 2 0.0 -0.7153599858 0.7790215611 -0.2988866568 1 0 0
140 1 5 0.0 -0.5212613344 0.3739624023 0.0442969762 1 0 0
141 1 4 0.0 0.9664618969 -1.2111295462 -0.0982910693 -1 0 0
142 1 2 0.0 0.8464080095 1.1349102259 -0.332898438 -1 -1 0
143 1 6 0.0 0.7426043153 0.7175931334 -0.5002076626 -1 -1 0
144 1 2 0.0 0.4816108048 0.2816865146 -0.673412025 -1 -1 0
145 1 5 0.0 0.1467082351 0.0151191428 -0.8245642781 -1 -1 0
146 1 4 0.0 -0.4025576115 1.1691993475 -1.3536100388 0 -1 0
147 1 2 0.0 -0.0372085348 1.2752219439 1.2617270947 0 -1 -1
148 1 6 0.0 0.3369958997 -1.4042202234 1.0583826303 0 0 -1
149 1 2 0.0 0.7319428325 -1.1254501343 0.9121719599 0 0 -1
150 1 5 0.0 1.1228932142 -0.8597401977 0.6882244945 0 0 -1
151 1 4 0.0 0.9135973454 1.0114533901 -0.8907247782 0 -1 1
152 1 2 0.0 0.5959659219 1.207454443 -0.8927736878 0 -1 1
153 1 6 0.0 0.253359437 1.3579173088 -0.9466267228 0 -1 1
154 1 2 0.0 -0.053128127 -1.2597846985 -1.1215593815 0 0 1
155 1 5 0.0 -0.4141450524 -1.0069406033 -1.3357093334 0 0 1
156 1 4 0.0 -1.1667732 -0.8125305772 -1.298388958 1 0 0
157 1 2 0.0 1.3341526985 -1.037832737 -1.3812454939 0 0 0
158 1 6 0.0 1.1525498629 -1.3062505722 1.1203365326 0 0 -1
159 1 2 0.0 1.0202383995 1.2353448868 0.7900362015 0 -1 -1
160 1 5 0.0 1.1578993797 0.869269073 0.6427211761 0 -1 -1

Bonds

1 1 1 2
2 12 1 125
3 2 2 3
4 7 3 121
5 1 4 5
6 11 4 146
7 12 4 100
8 2 5 6
9 1 7 8
10 12 7 140
11 12 7 120
12 2 8 9
13 8 9 90
14 1 10 11
15 12 10 95
16 2 11 12
17 1 13 14
18 12 13 150
19 2 14 15
20 8 15 160
21 7 15 71
22 1 16 17
23 12 16 85
24 11 16 156
25 2 17 18
26 8 18 145
27 7 18 91
28 1 19 20
29 2 20 21
30 8 21 75
31 7 21 131
32 1 22 23
33 2 23 24
34 8 24 70
35 8 24 115
36 1 25 26
37 11 25 106
38 2 26 27
39 7 27 141
40 7 27 116
41 1 28 29
42 11 28 111
43 11 28 86
44 2 29 30
45 1 31 32
46 2 32 33
47 1 34 35
48 11 34 76
49 2 35 36
50 1 37 38
51 2 38 39
52 8 39 110
53 1 40 41
54 11 40 96
55 11 40 81
56 2 41 42
57 8 42 105
58 7 42 126
59 1 43 44
60 11 43 101
61 2 44 45
62 1 46 47
63 12 46 80
64 2 47 48
65 8 48 130
66 8 48 155
67 1 49 50
68 2 50 51
69 1 52 53
70 2 53 54
71 1 55 56
72 11 55 66
73 11 55 136
74 2 56 57
75 8 57 65
76 8 57 135
77 1 58 59
78 11 58 61
79 11 58 151
80 2 59 60
81 5 61 62
82 4 62 63
83 4 63 64
84 3 64 65
85 5 66 67
86 4 67 68
87 4 68 69
88 3 69 70
89 5 71 72
90 4 72 73
91 4 73 74
92 3 74 75
93 5 76 77
94 4 77 78
95 4 78 79
96 3 79 80
97 5 81 82
98 4 82 83
99 4 83 84
100 3 84 85
101 5 86 87
102 4 87 88
103 4 88 89
104 3 89 90
105 5 91 92
106 4 92 93
107 4 93 94
108 3 94 95
109 5 96 97
110 4 97 98
111 4 98 99
112 3 99 100
113 5 101 102
114 4 102 103
115 4 103 104
116 3 104 105
117 5 106 107
118 4 107 108
119 4 108 109
120 3 109 110
121 5 111 112
122 4 112 113
123 4 113 114
124 3 114 115
125 5 116 117
126 4 117 118
127 4 118 119
128 3 119 120
129 5 121 122
130 4 122 123
131 4 123 124
132 3 124 125
133 5 126 127
134 4 127 128
135 4 128 129
136 3 129 130
137 5 131 132
138 4 132 133
139 4 133 134
140 3 134 135
141 5 136 137
142 4 137 138
143 4 138 139
144 3 139 140
145 5 141 142
146 4 142 143
147 4 143 144
148 3 144 145
149 5 146 147
150 4 147 148
151 4 148 149
152 3 149 150
153 5 151 152
154 4 152 153
155 4 153 154
156 3 154 155
157 5 156 157
158 4 157 158
159 4 158 159
160 3 159 160
