# LAMMPS data file written by Ovito 3.0.0-dev349
160 atoms
160 bonds
6 atom types
12 bond types
-1.4245699645 1.4245699645 xlo xhi
-1.4245699645 1.4245699645 ylo yhi
-1.4245699645 1.4245699645 zlo zhi

Atoms # full

1 1 1 0.0 0.9762523174 -0.1363425702 0.2407374084 0 0 0
2 1 2 0.0 -1.3402349949 -0.2994885743 0.136938706 1 0 0
3 1 3 0.0 -0.9467485547 -0.6939123273 -0.0054547638 1 0 0
4 1 1 0.0 -0.8973479867 0.7857655883 -1.139757514 1 0 1
5 1 2 0.0 -1.2563337088 0.7798865438 1.3546359539 1 0 0
6 1 3 0.0 1.3929015398 0.9222419262 0.9844936728 0 0 0
7 1 1 0.0 -0.2627156675 0.2263030708 0.301638782 1 -1 0
8 1 2 0.0 -0.2523930371 -0.1911898255 0.582700491 1 -1 0
9 1 3 0.0 -0.1619863957 -0.3613528907 1.1514490843 1 -1 0
10 1 1 0.0 1.4075347185 1.3163523674 -0.2136567682 -1 -1 0
11 1 2 0.0 1.1433207989 -1.3821092844 -0.6178432703 -1 0 0
12 1 3 0.0 1.0659247637 -1.4057904482 -1.0957378149 -1 0 0
13 1 1 0.0 1.3604072332 -0.3653123677 0.6644861102 -1 0 0
14 1 2 0.0 1.3638988733 0.0602049343 0.7183275223 -1 0 0
15 1 3 0.0 -1.3878405094 0.4971097708 0.560674727 0 0 0
16 1 1 0.0 -0.7572533488 -0.8291755915 -0.9283474088 -1 0 1
17 1 2 0.0 -0.5436241031 -0.4636841714 -1.0238982439 -1 0 1
18 1 3 0.0 -0.249752894 -0.0822992027 -0.9392074943 -1 0 1
19 1 1 0.0 0.6724078655 -1.1916540861 -0.5006632805 -1 0 1
20 1 2 0.0 0.6900911927 -1.0832396746 -0.835183084 -1 0 1
21 1 3 0.0 0.6048687696 -0.7301818132 -1.1832480431 -1 0 1
22 1 1 0.0 0.9980097413 0.4065434337 -0.8804214001 0 0 1
23 1 2 0.0 1.0694028139 0.510817647 -1.3229112625 0 0 1
24 1 3 0.0 1.1913477182 0.3998616338 1.1874668598 0 0 0
25 1 1 0.0 1.2839843035 0.0560863502 -0.4586396217 0 0 1
26 1 2 0.0 1.1224360466 -0.3231038153 -0.2000593394 0 0 1
27 1 3 0.0 1.1400943995 -0.702978909 0.1390796006 0 0 1
28 1 1 0.0 0.6483948231 -0.898896575 -0.0261994489 0 0 0
29 1 2 0.0 0.5136301517 -0.7310819626 0.4690407515 0 0 0
30 1 3 0.0 0.1909811497 -0.7058284879 0.8083578944 0 0 0
31 1 1 0.0 -0.8714129925 0.0046208501 0.2139719576 0 1 0
32 1 2 0.0 -1.1646262407 0.1668130308 -0.0566452071 0 1 0
33 1 3 0.0 1.2000281811 0.4124782085 -0.1060851589 -1 1 0
34 1 1 0.0 0.4768151641 0.2921990454 0.9983292222 0 -1 -1
35 1 2 0.0 0.7700634003 0.0337481052 1.2270579338 0 -1 -1
36 1 3 0.0 1.1510754824 -0.0185368694 -1.2303453684 0 -1 0
37 1 1 0.0 1.1438108683 1.0238466263 -1.3926817179 0 0 1
38 1 2 0.0 0.8223250508 0.8288745284 1.1655299664 0 0 0
39 1 3 0.0 0.5336812735 0.8869897127 0.7941582799 0 0 0
40 1 1 0.0 0.3257421553 -1.2012085915 0.433028698 0 0 0
41 1 2 0.0 0.2295756191 1.2997841835 0.5458812714 0 -1 0
42 1 3 0.0 0.0242367052 0.9750856757 0.4343741834 0 -1 0
43 1 1 0.0 0.0829754248 -1.0883140564 -0.561486423 0 0 0
44 1 2 0.0 -0.3295373023 -1.1036430597 -0.7590934038 0 0 0
45 1 3 0.0 -0.6417712569 -1.3465818167 -1.0096886158 0 0 0
46 1 1 0.0 -0.1689148396 -1.2073345184 0.6091620922 1 0 0
47 1 2 0.0 -0.4721538723 -0.7170593143 0.8520764112 1 0 0
48 1 3 0.0 -0.6758125424 -0.518212378 1.2962162495 1 0 0
49 1 1 0.0 -0.9743275046 -0.2756735682 0.9131240249 0 1 0
50 1 2 0.0 -0.7532904148 -0.5007961392 0.4528927207 0 1 0
51 1 3 0.0 -0.4911986589 -0.929884851 0.1612105668 0 1 0
52 1 1 0.0 -0.927326262 0.2167854309 0.7152606249 0 1 0
53 1 2 0.0 -0.5636734366 0.1443726718 0.9165263176 0 1 0
54 1 3 0.0 -0.0836850703 0.2257742733 0.9763278961 0 1 0
55 1 1 0.0 1.1283605099 -0.6748847365 -1.0108854771 -1 0 1
56 1 2 0.0 1.1232466698 -0.6834012866 -1.3558905125 -1 0 1
57 1 3 0.0 0.9837809801 -0.8109511733 1.2233636379 -1 0 0
58 1 1 0.0 1.3965313435 0.8075701594 -0.9396194816 -1 0 0
59 1 2 0.0 -1.2444843054 1.1794025898 -1.093259573 0 0 0
60 1 3 0.0 -1.0148210526 1.3725961447 1.4066488743 0 0 -1
61 1 4 0.0 -1.3171960115 0.7041763663 -0.4356837273 1 0 0
62 1 2 0.0 -1.2387546301 0.8564648032 -0.0254034065 1 0 0
63 1 6 0.0 -1.18098104 1.0900018215 0.3796666563 1 0 0
64 1 2 0.0 -1.2520236969 1.404619813 0.7319908142 1 0 0
65 1 5 0.0 1.3840575218 -1.0220601559 0.9095051885 0 1 0
66 1 4 0.0 0.8468398452 -0.3694367707 -0.6929690242 -1 0 0
67 1 2 0.0 0.6304898262 -0.0790396258 -0.3534457386 -1 0 0
68 1 6 0.0 0.6214832664 0.2137953192 0.0245040357 -1 0 0
69 1 2 0.0 0.7358350754 0.3447373807 0.4129712582 -1 0 0
70 1 5 0.0 0.9495264888 0.4139312208 0.7375120521 -1 0 0
71 1 4 0.0 -0.9643927217 0.7429155111 0.7309663892 0 -1 0
72 1 2 0.0 -0.7556327581 1.1434288025 0.960647583 0 -1 0
73 1 6 0.0 -0.4881823063 -1.2838667631 1.0470205545 0 0 0
74 1 2 0.0 -0.1349303275 -1.0836504698 1.1458353996 0 0 0
75 1 5 0.0 0.2622002065 -0.8962498903 1.2958260775 0 0 0
76 1 4 0.0 0.1670203209 0.6038390398 1.3622903824 0 0 -1
77 1 2 0.0 -0.0119352443 0.8840606213 -1.1784713268 0 0 0
78 1 6 0.0 -0.1951088309 1.2254652977 -0.7710130811 0 0 0
79 1 2 0.0 -0.2166353315 1.3531615734 -0.3315548897 0 0 0
80 1 5 0.0 -0.1807067245 -1.3877031803 0.143811509 0 1 0
81 1 4 0.0 0.8381435871 -1.1618924141 0.47404477 -1 1 0
82 1 2 0.0 1.1669389009 -1.1940619946 0.4101654589 -1 1 0
83 1 6 0.0 -1.2609766722 -1.2789340019 0.1982754916 0 1 0
84 1 2 0.0 -1.0195474625 -1.2256939411 -0.1219167411 0 1 0
85 1 5 0.0 -0.7815288305 -1.0588932037 -0.4354703426 0 1 0
86 1 4 0.0 0.4056290686 -1.4116590023 -0.0822979435 0 1 0
87 1 2 0.0 0.2752749026 1.0044542551 -0.3251977861 0 0 0
88 1 6 0.0 0.1734208018 0.7051606178 -0.6810156703 0 0 0
89 1 2 0.0 0.0753866434 0.381119132 -1.0380442142 0 0 0
90 1 5 0.0 -0.0794666037 0.0351369306 -1.367718935 0 0 0
91 1 4 0.0 -0.2057091296 0.1879628003 -0.5025268793 0 0 0
92 1 2 0.0 -0.0036445509 0.4081885517 -0.1673362404 0 0 0
93 1 6 0.0 0.2636312544 0.7010906339 0.0986746103 0 0 0
94 1 2 0.0 0.6165251732 0.9687058926 0.2810631096 0 0 0
95 1 5 0.0 1.0739461184 1.1429587603 0.154155001 0 0 0
96 1 4 0.0 0.0281550921 -0.8081003428 0.2635955811 0 0 0
97 1 2 0.0 -0.2043076307 -0.4542055428 0.0966691896 0 0 0
98 1 6 0.0 -0.4875015914 -0.1773448139 -0.126671657 0 0 0
99 1 2 0.0 -0.6922224164 0.0743661746 -0.4307228923 0 0 0
100 1 5 0.0 -0.8102791905 0.3709132969 -0.7549414635 0 0 0
101 1 4 0.0 0.2222104371 -0.7577690482 -0.2642067671 0 0 0
102 1 2 0.0 0.3644567132 -0.4183889925 0.0773219168 0 0 0
103 1 6 0.0 0.3170375228 -0.127166748 0.3714018464 0 0 0
104 1 2 0.0 0.2396374494 0.2028533369 0.545525074 0 0 0
105 1 5 0.0 0.1439985782 0.5165535212 0.5785037279 0 0 0
106 1 4 0.0 -1.3588094711 0.1704293936 -0.8549998403 0 0 0
107 1 2 0.0 -1.0383048058 0.3369820714 -1.2920339108 0 0 0
108 1 6 0.0 -0.6672417521 0.5753062367 1.2685872316 0 0 -1
109 1 2 0.0 -0.3325489461 0.7704415321 1.1015934944 0 0 -1
110 1 5 0.0 0.0592743754 0.9180302024 0.9688285589 0 0 -1
111 1 4 0.0 1.0143357515 -0.7993792892 -0.3857186437 -1 0 0
112 1 2 0.0 1.3851803541 -0.6023185849 -0.5942959189 -1 0 0
113 1 6 0.0 -1.1444869041 -0.4362683296 -0.8922374845 0 0 0
114 1 2 0.0 -1.1179884672 -0.2011609375 -1.2967056036 0 0 0
115 1 5 0.0 -1.293371439 0.0494295582 1.2289041281 0 0 -1
116 1 4 0.0 -1.3058989048 -0.7974386811 0.3919550776 -1 1 0
117 1 2 0.0 -0.9153662324 -1.0341175795 0.5258134007 -1 1 0
118 1 6 0.0 -0.6995843649 -1.3705744743 0.5090016127 -1 1 0
119 1 2 0.0 -0.5367748141 1.1207574606 0.490429759 -1 0 0
120 1 5 0.0 -0.3839639425 0.7017955184 0.4827417135 -1 0 0
121 1 4 0.0 -0.5365755558 -0.6515200138 -0.4106598198 1 0 0
122 1 2 0.0 -0.104177624 -0.584299922 -0.7295458317 1 0 0
123 1 6 0.0 0.1162881851 -0.4557541013 -1.1597687006 1 0 0
124 1 2 0.0 0.4199291766 -0.3400281668 1.1813033819 1 0 -1
125 1 5 0.0 0.7535519004 -0.2360253334 0.7207615376 1 0 -1
126 1 4 0.0 -0.2722036541 0.9364355206 0.0200084113 0 0 0
127 1 2 0.0 -0.2773026526 0.8314025998 -0.3758430779 0 0 0
128 1 6 0.0 -0.373765409 0.6947197318 -0.7532294393 0 0 0
129 1 2 0.0 -0.4413411915 0.3889501691 -1.1424467564 0 0 0
130 1 5 0.0 -0.6193596125 -0.0200473089 -1.394726634 0 0 0
131 1 4 0.0 0.6199039817 -0.2013949305 -1.1659481525 0 0 0
132 1 2 0.0 0.5908491015 0.2122872025 -1.1854352951 0 0 0
133 1 6 0.0 0.581133306 0.7278162837 -1.2071194649 0 0 0
134 1 2 0.0 0.6457606554 1.1926625967 -1.2910618782 0 0 0
135 1 5 0.0 0.748721838 -1.228091836 1.4099707603 0 1 -1
136 1 4 0.0 -1.3760104179 -1.0544812679 -0.8045702577 1 1 0
137 1 2 0.0 -1.1655057669 -1.3528354168 -0.6799181104 1 1 0
138 1 6 0.0 -0.9486483335 1.140242219 -0.4818594158 1 0 0
139 1 2 0.0 -0.8070506454 0.7407620549 -0.3020111024 1 0 0
140 1 5 0.0 -0.597563684 0.4169563949 -0.0544820689 1 0 0
141 1 4 0.0 1.0406435728 -1.199383378 -0.0782916248 -1 0 0
142 1 2 0.0 0.8305866122 1.1185537577 -0.2813498676 -1 -1 0
143 1 6 0.0 0.7154484391 0.684792161 -0.4293801486 -1 -1 0
144 1 2 0.0 0.5370506048 0.3073413074 -0.6535412073 -1 -1 0
145 1 5 0.0 0.2221862823 -0.0353663191 -0.8260727525 -1 -1 0
146 1 4 0.0 -0.5347005725 1.0560008287 -1.3510053158 0 -1 0
147 1 2 0.0 -0.1521673948 1.2610453367 1.3171471357 0 -1 -1
148 1 6 0.0 0.2555591762 -1.3941179514 1.0976729393 0 0 -1
149 1 2 0.0 0.6170496345 -1.0221419334 0.8771339655 0 0 -1
150 1 5 0.0 0.9997353554 -0.7009818554 0.7591113448 0 0 -1
151 1 4 0.0 0.9687331319 0.979767561 -0.8310259581 0 -1 1
152 1 2 0.0 0.6188243032 1.1412713528 -0.803127408 0 -1 1
153 1 6 0.0 0.2636952102 -1.3935660124 -0.9752454162 0 0 1
154 1 2 0.0 -0.0803442523 -1.1954827309 -1.1726779938 0 0 1
155 1 5 0.0 -0.4324109256 -0.9192718267 -1.2977452278 0 0 1
156 1 4 0.0 -1.1483360529 -0.9779691696 -1.2477316856 1 0 0
157 1 2 0.0 1.3833134174 -1.1302027702 1.3995672464 0 0 -1
158 1 6 0.0 1.0755852461 -1.3980671167 1.1087499857 0 0 -1
159 1 2 0.0 0.9731388092 1.1564325094 0.7598590851 0 -1 -1
160 1 5 0.0 1.0838733912 0.8360577822 0.5872160792 0 -1 -1

Bonds

1 1 1 2
2 12 1 125
3 2 2 3
4 7 3 121
5 1 4 5
6 11 4 146
7 12 4 100
8 2 5 6
9 1 7 8
10 12 7 140
11 12 7 120
12 2 8 9
13 8 9 90
14 1 10 11
15 12 10 95
16 2 11 12
17 1 13 14
18 12 13 150
19 2 14 15
20 8 15 160
21 7 15 71
22 1 16 17
23 12 16 85
24 11 16 156
25 2 17 18
26 8 18 145
27 7 18 91
28 1 19 20
29 2 20 21
30 8 21 75
31 7 21 131
32 1 22 23
33 2 23 24
34 8 24 70
35 8 24 115
36 1 25 26
37 11 25 106
38 2 26 27
39 7 27 141
40 7 27 116
41 1 28 29
42 11 28 111
43 11 28 86
44 2 29 30
45 1 31 32
46 2 32 33
47 1 34 35
48 11 34 76
49 2 35 36
50 1 37 38
51 2 38 39
52 8 39 110
53 1 40 41
54 11 40 96
55 11 40 81
56 2 41 42
57 8 42 105
58 7 42 126
59 1 43 44
60 11 43 101
61 2 44 45
62 1 46 47
63 12 46 80
64 2 47 48
65 8 48 130
66 8 48 155
67 1 49 50
68 2 50 51
69 1 52 53
70 2 53 54
71 1 55 56
72 11 55 66
73 11 55 136
74 2 56 57
75 8 57 65
76 8 57 135
77 1 58 59
78 11 58 61
79 11 58 151
80 2 59 60
81 5 61 62
82 4 62 63
83 4 63 64
84 3 64 65
85 5 66 67
86 4 67 68
87 4 68 69
88 3 69 70
89 5 71 72
90 4 72 73
91 4 73 74
92 3 74 75
93 5 76 77
94 4 77 78
95 4 78 79
96 3 79 80
97 5 81 82
98 4 82 83
99 4 83 84
100 3 84 85
101 5 86 87
102 4 87 88
103 4 88 89
104 3 89 90
105 5 91 92
106 4 92 93
107 4 93 94
108 3 94 95
109 5 96 97
110 4 97 98
111 4 98 99
112 3 99 100
113 5 101 102
114 4 102 103
115 4 103 104
116 3 104 105
117 5 106 107
118 4 107 108
119 4 108 109
120 3 109 110
121 5 111 112
122 4 112 113
123 4 113 114
124 3 114 115
125 5 116 117
126 4 117 118
127 4 118 119
128 3 119 120
129 5 121 122
130 4 122 123
131 4 123 124
132 3 124 125
133 5 126 127
134 4 127 128
135 4 128 129
136 3 129 130
137 5 131 132
138 4 132 133
139 4 133 134
140 3 134 135
141 5 136 137
142 4 137 138
143 4 138 139
144 3 139 140
145 5 141 142
146 4 142 143
147 4 143 144
148 3 144 145
149 5 146 147
150 4 147 148
151 4 148 149
152 3 149 150
153 5 151 152
154 4 152 153
155 4 153 154
156 3 154 155
157 5 156 157
158 4 157 158
159 4 158 159
160 3 159 160
