# LAMMPS data file written by Ovito 3.0.0-dev349
160 atoms
148 bonds
6 atom types
12 bond types
-1.404356003 1.404356003 xlo xhi
-1.404356003 1.404356003 ylo yhi
-1.404356003 1.404356003 zlo zhi

Atoms # full

1 1 1 0.0 0.6231513023 -0.1790888458 0.8165132403 0 0 0
2 1 2 0.0 1.0813624859 -0.4178088307 0.7385246158 0 0 0
3 1 3 0.0 -1.4008514881 -0.7683628201 0.4144243598 1 0 0
4 1 1 0.0 -1.2065321207 0.5459312797 -1.2095103264 1 0 1
5 1 2 0.0 1.1602082253 0.6310221553 -1.1418665648 0 0 1
6 1 3 0.0 0.8077114224 0.7112888098 -0.8437144756 0 0 1
7 1 1 0.0 -0.8387118578 0.2723329663 0.6006572843 1 -1 0
8 1 2 0.0 -0.6397718191 0.6364142895 0.735596478 1 -1 0
9 1 3 0.0 -0.320976764 1.0021959543 0.6354734898 1 -1 0
10 1 1 0.0 1.2282899618 -1.0559082031 -0.5482270718 -1 0 0
11 1 2 0.0 1.0511586666 -0.9579123855 -0.9674589634 -1 0 0
12 1 3 0.0 0.7731847167 -0.9465942979 -1.2227345705 -1 0 0
13 1 1 0.0 -1.1649645567 -0.2188920528 0.4500378072 0 0 0
14 1 2 0.0 -1.2603955269 0.1451761425 0.2974725068 0 0 0
15 1 3 0.0 1.3506933451 0.5257868767 0.3448595703 -1 0 0
16 1 1 0.0 0.2276070416 0.1204485148 0.5237703919 -1 0 0
17 1 2 0.0 0.2238858789 0.1173033342 0.9287647605 -1 0 0
18 1 3 0.0 -0.0121003231 0.0922519788 1.3044553995 -1 0 0
19 1 1 0.0 0.1414782107 -0.5516049862 -0.4777804315 -1 0 1
20 1 2 0.0 0.3765851557 -0.4676685035 -0.8041463494 -1 0 1
21 1 3 0.0 0.4834085703 -0.5081424713 -1.2133641243 -1 0 1
22 1 1 0.0 1.0936824083 0.4277600646 -0.1416783929 0 0 1
23 1 2 0.0 1.1844431162 0.3110960722 -0.652713716 0 0 1
24 1 3 0.0 1.3863514662 0.0572415851 -0.9989157915 0 0 1
25 1 1 0.0 -1.2907789946 -0.1361920238 -0.1444611847 1 0 1
26 1 2 0.0 1.1587567329 -0.4560073316 0.025152823 0 0 1
27 1 3 0.0 1.039052844 -0.9238218069 0.1203043833 0 0 1
28 1 1 0.0 0.3141156435 -0.83983922 0.238016516 0 0 0
29 1 2 0.0 0.5469979644 -0.8584852219 0.6815776825 0 0 0
30 1 3 0.0 0.7393271327 -0.669357121 1.0783090591 0 0 0
31 1 1 0.0 -0.1608518213 -0.2136498392 0.6854526401 0 1 0
32 1 2 0.0 0.1824040711 -0.3985430598 0.552272439 0 1 0
33 1 3 0.0 0.6219782233 -0.4440621734 0.4013817012 0 1 0
34 1 1 0.0 0.2344918996 1.0080807209 1.3561134338 0 -1 -1
35 1 2 0.0 0.3722062409 0.7081919312 1.1148849726 0 -1 -1
36 1 3 0.0 0.6879425049 0.5226375461 0.7809877396 0 -1 -1
37 1 1 0.0 0.8218914866 1.1293801069 0.7103014588 0 0 0
38 1 2 0.0 0.420586437 0.9684848785 0.527623713 0 0 0
39 1 3 0.0 0.1857390702 0.6365532875 0.3326937556 0 0 0
40 1 1 0.0 0.0695122406 -1.0798597336 0.6889156103 0 0 0
41 1 2 0.0 0.4767261147 -1.3262791634 0.4725924432 0 0 0
42 1 3 0.0 0.6751503348 1.2066048384 0.0844295546 0 -1 0
43 1 1 0.0 -0.3268013299 -1.2337347269 -0.0322262123 0 0 0
44 1 2 0.0 -0.6588522196 -1.2225495577 -0.2231210321 0 0 0
45 1 3 0.0 -1.129368782 -1.1013791561 -0.2729566693 0 0 0
46 1 1 0.0 -1.2593390942 -1.3150092363 0.6276920438 1 0 0
47 1 2 0.0 -0.9942287803 -1.0453093052 0.9925630093 1 0 0
48 1 3 0.0 -0.5655691624 -0.7219720483 1.0097228289 1 0 0
49 1 1 0.0 -0.7559783459 -0.2473389059 0.8111076355 0 1 0
50 1 2 0.0 -0.9163605571 -0.7364760637 0.6115304232 0 1 0
51 1 3 0.0 -0.7288510203 -1.1361792088 0.4782549739 0 1 0
52 1 1 0.0 -1.2838590145 -0.5486512184 0.9530215263 0 1 0
53 1 2 0.0 -1.2182514668 -0.1411172748 1.0672883987 0 1 0
54 1 3 0.0 -1.1090735197 0.3639554977 1.024070859 0 1 0
55 1 1 0.0 0.8734150529 -0.1695701927 -0.9421816468 -1 0 1
56 1 2 0.0 1.1010953188 -0.465868026 -1.2804908752 -1 0 1
57 1 3 0.0 1.3372708559 -0.8501719832 1.3447732925 -1 0 0
58 1 1 0.0 -1.2785617113 0.8919855952 -0.8250775933 0 0 0
59 1 2 0.0 -0.8672530055 1.036601305 -0.9571479559 0 0 0
60 1 3 0.0 -0.5776722431 1.2601951361 -0.7783025503 0 0 0
61 1 4 0.0 -1.3702843189 0.7945231199 -0.3345906734 1 0 0
62 1 2 0.0 1.3013386726 0.9664657116 0.0089923069 0 0 0
63 1 6 0.0 1.1364102364 1.2019827366 0.2704983652 0 0 0
64 1 2 0.0 1.0549268723 -1.2404772043 0.5547469258 0 1 0
65 1 5 0.0 1.1867758036 -0.9917689562 0.8652291298 0 1 0
66 1 4 0.0 0.9321525693 -0.0742255971 -0.4427546859 -1 0 0
67 1 2 0.0 0.9758738279 -0.0175633617 0.0031819369 -1 0 0
68 1 6 0.0 1.0277010202 0.0281613041 0.4369522631 -1 0 0
69 1 2 0.0 1.0944273472 0.0997590572 0.8960832357 -1 0 0
70 1 5 0.0 1.1872771978 0.1342763752 1.3310447931 -1 0 0
71 1 4 0.0 -1.1815718412 0.9800543785 0.4788883626 0 -1 0
72 1 2 0.0 -0.8179754615 1.2681441307 0.7625043988 0 -1 0
73 1 6 0.0 -0.5247081518 -1.2933031321 1.0058796406 0 0 0
74 1 2 0.0 -0.1483248621 -1.0680636168 1.1609654427 0 0 0
75 1 5 0.0 0.176255092 -0.838234365 1.3457297087 0 0 0
76 1 4 0.0 -0.6818643808 0.5064719915 -1.1037861109 0 0 0
77 1 2 0.0 -0.4701045454 0.7145379782 -0.6284214258 0 0 0
78 1 6 0.0 -0.3150579631 0.9237495065 -0.2602128088 0 0 0
79 1 2 0.0 -0.1367043704 1.0768324137 0.0366587602 0 0 0
80 1 5 0.0 0.0267632436 1.233276248 0.3008067608 0 0 0
81 1 4 0.0 -0.981120944 -0.7316985726 -0.7083585858 0 1 0
82 1 2 0.0 -0.6473429203 -0.9686665535 -0.7185667753 0 1 0
83 1 6 0.0 -0.2367208749 -1.051014185 -0.7197030783 0 1 0
84 1 2 0.0 0.1699141115 -1.0250862837 -0.6790028214 0 1 0
85 1 5 0.0 0.6654695272 -0.9530189037 -0.6336765289 0 1 0
86 1 4 0.0 0.2366746813 -1.2849166393 -0.0764002502 0 1 0
87 1 2 0.0 -0.0151372412 1.3206846714 -0.4240413606 0 0 0
88 1 6 0.0 -0.1123492643 1.098803997 -0.8072880507 0 0 0
89 1 2 0.0 -0.2173354477 0.9084116817 -1.2079335451 0 0 0
90 1 5 0.0 -0.2281559706 0.6247678399 1.1909575462 0 0 -1
91 1 4 0.0 0.284188062 -0.036599312 -1.0611076355 0 0 0
92 1 2 0.0 0.4202949107 0.0630546957 -0.7209002376 0 0 0
93 1 6 0.0 0.6723371148 0.4156713188 -0.4664000571 0 0 0
94 1 2 0.0 0.8635922074 0.873717308 -0.3237745762 0 0 0
95 1 5 0.0 1.1156100035 1.2886395454 -0.3632539213 0 0 0
96 1 4 0.0 -0.2635449767 -0.7204121351 0.4906552434 0 0 0
97 1 2 0.0 -0.4961895347 -0.4379311204 0.3285823762 0 0 0
98 1 6 0.0 -0.7240895033 -0.0761434734 0.0364232995 0 0 0
99 1 2 0.0 -0.9210792184 0.2159212977 -0.3679580092 0 0 0
100 1 5 0.0 -1.0759670734 0.3802537918 -0.7544823289 0 0 0
101 1 4 0.0 -0.134598434 -0.7862080932 -0.0176998619 0 0 0
102 1 2 0.0 0.1256031543 -0.4233369529 0.0190378763 0 0 0
103 1 6 0.0 0.3401353359 -0.1206436008 0.0917282477 0 0 0
104 1 2 0.0 0.608199358 0.300209254 0.1835513264 0 0 0
105 1 5 0.0 0.8215242028 0.7430476546 0.1942792237 0 0 0
106 1 4 0.0 -1.0526826382 -0.1792745888 -0.6025431752 0 0 0
107 1 2 0.0 -0.868003726 -0.039311327 -1.0563857555 0 0 0
108 1 6 0.0 -0.7855687141 0.0637074634 1.3854677677 0 0 -1
109 1 2 0.0 -0.4843676686 0.1940391362 1.0120390654 0 0 -1
110 1 5 0.0 -0.1690440178 0.3890501559 0.6590272784 0 0 -1
111 1 4 0.0 0.6443032622 -0.6441278458 -0.0950327888 -1 0 0
112 1 2 0.0 0.9833620191 -0.5823931098 -0.5052381754 -1 0 0
113 1 6 0.0 1.3002711535 -0.48849231 -0.7702900767 -1 0 0
114 1 2 0.0 -1.2240959406 -0.5028102994 -1.1026477814 0 0 0
115 1 5 0.0 -0.9454436898 -0.4561910331 -1.3991008997 0 0 0
116 1 4 0.0 -1.3620282412 -1.2510874271 0.1269674003 -1 1 0
117 1 2 0.0 -0.9628425837 1.2503854036 0.1048515365 -1 0 0
118 1 6 0.0 -0.661559701 0.9595007896 0.1941473782 -1 0 0
119 1 2 0.0 -0.3585104942 0.5948495269 0.2122244835 -1 0 0
120 1 5 0.0 -0.0513988845 0.2126386911 0.0683590472 -1 0 0
121 1 4 0.0 -0.9918807149 -0.6118791103 0.04004227 1 0 0
122 1 2 0.0 -0.650533855 -0.4893156886 -0.2698019743 1 0 0
123 1 6 0.0 -0.3156172931 -0.4297780693 -0.7454919219 1 0 0
124 1 2 0.0 -0.0522029735 -0.4263112843 -1.2079077959 1 0 0
125 1 5 0.0 0.2449675947 -0.3543557525 1.1466659307 1 0 -1
126 1 4 0.0 0.3233208358 0.979927659 -0.1677078754 0 0 0
127 1 2 0.0 0.1158590615 0.6274375319 -0.4352259934 0 0 0
128 1 6 0.0 -0.154138729 0.2962913215 -0.7737147808 0 0 0
129 1 2 0.0 -0.3864606619 0.0736489072 -1.1613904238 0 0 0
130 1 5 0.0 -0.4567655623 -0.2991378307 1.2688131332 0 0 -1
131 1 4 0.0 0.6357264519 -0.06232813 1.3714487553 0 0 -1
132 1 2 0.0 0.6779953241 0.3508673906 1.2862362862 0 0 -1
133 1 6 0.0 0.8120017648 0.7852740884 1.3142882586 0 0 -1
134 1 2 0.0 0.9107391834 1.1356114149 1.3591275215 0 0 -1
135 1 5 0.0 1.108651042 -1.3077356815 1.3906821012 0 1 -1
136 1 4 0.0 -1.2815297842 -1.1224284172 -0.9865384698 1 1 0
137 1 2 0.0 -1.1700153351 1.3810361624 -0.6957320571 1 0 0
138 1 6 0.0 -0.9405542016 1.0769851208 -0.4519786239 1 0 0
139 1 2 0.0 -0.8572751284 0.7611888051 -0.2150806934 1 0 0
140 1 5 0.0 -0.869607687 0.4714851379 0.1452912092 1 0 0
141 1 4 0.0 0.762214601 -1.1728006601 -0.1785118878 -1 0 0
142 1 2 0.0 0.6087645888 1.3342041969 -0.4866310358 -1 -1 0
143 1 6 0.0 0.4142464399 1.0972672701 -0.7174537778 -1 -1 0
144 1 2 0.0 0.2714578509 0.7507442236 -0.9506118298 -1 -1 0
145 1 5 0.0 0.1369930953 0.4628989697 -1.2078845501 -1 -1 0
146 1 4 0.0 -0.896468401 0.8202975392 1.3303757906 0 -1 -1
147 1 2 0.0 -0.5857251883 0.9949246645 1.1828258038 0 -1 -1
148 1 6 0.0 -0.1719970554 1.160066843 1.1070536375 0 -1 -1
149 1 2 0.0 0.290637821 1.3886778355 1.0227957964 0 -1 -1
150 1 5 0.0 0.6892700195 -1.2077327967 1.0347975492 0 0 -1
151 1 4 0.0 1.1451170444 1.2189494371 -0.9067590237 0 -1 1
152 1 2 0.0 0.80014503 1.3883913755 -0.9617859721 0 -1 1
153 1 6 0.0 0.4071816206 -1.3377600908 -1.1249145269 0 0 1
154 1 2 0.0 0.0071073347 -1.3310822248 -1.1840988398 0 0 1
155 1 5 0.0 -0.4051477909 -1.3892549276 -1.2420133352 0 0 1
156 1 4 0.0 -0.4874395728 -0.6602813601 -1.17537117 1 0 0
157 1 2 0.0 -0.8076732755 -1.0575537682 -1.2652429342 1 0 0
158 1 6 0.0 -1.0884513855 1.339628458 -1.3938161135 1 -1 0
159 1 2 0.0 1.3899857998 0.9806948304 1.2119367123 0 -1 -1
160 1 5 0.0 1.2808845043 0.6844691634 0.8184819818 0 -1 -1

Bonds

1 1 1 2
2 12 1 125
3 2 2 3
4 7 3 121
5 1 4 5
6 11 4 146
7 12 4 100
8 2 5 6
9 1 7 8
10 12 7 140
11 2 8 9
12 1 10 11
13 12 10 95
14 2 11 12
15 1 13 14
16 2 14 15
17 8 15 160
18 7 15 71
19 1 16 17
20 2 17 18
21 8 18 145
22 7 18 91
23 1 19 20
24 2 20 21
25 8 21 75
26 7 21 131
27 1 22 23
28 2 23 24
29 8 24 70
30 1 25 26
31 11 25 106
32 2 26 27
33 7 27 141
34 7 27 116
35 1 28 29
36 11 28 111
37 2 29 30
38 1 31 32
39 2 32 33
40 1 34 35
41 2 35 36
42 1 37 38
43 2 38 39
44 8 39 110
45 1 40 41
46 11 40 96
47 2 41 42
48 8 42 105
49 7 42 126
50 1 43 44
51 11 43 101
52 2 44 45
53 1 46 47
54 2 47 48
55 8 48 130
56 1 49 50
57 2 50 51
58 1 52 53
59 2 53 54
60 1 55 56
61 11 55 66
62 2 56 57
63 8 57 65
64 8 57 135
65 1 58 59
66 11 58 61
67 11 58 151
68 2 59 60
69 5 61 62
70 4 62 63
71 4 63 64
72 3 64 65
73 5 66 67
74 4 67 68
75 4 68 69
76 3 69 70
77 5 71 72
78 4 72 73
79 4 73 74
80 3 74 75
81 5 76 77
82 4 77 78
83 4 78 79
84 3 79 80
85 5 81 82
86 4 82 83
87 4 83 84
88 3 84 85
89 5 86 87
90 4 87 88
91 4 88 89
92 3 89 90
93 5 91 92
94 4 92 93
95 4 93 94
96 3 94 95
97 5 96 97
98 4 97 98
99 4 98 99
100 3 99 100
101 5 101 102
102 4 102 103
103 4 103 104
104 3 104 105
105 5 106 107
106 4 107 108
107 4 108 109
108 3 109 110
109 5 111 112
110 4 112 113
111 4 113 114
112 3 114 115
113 5 116 117
114 4 117 118
115 4 118 119
116 3 119 120
117 5 121 122
118 4 122 123
119 4 123 124
120 3 124 125
121 5 126 127
122 4 127 128
123 4 128 129
124 3 129 130
125 5 131 132
126 4 132 133
127 4 133 134
128 3 134 135
129 5 136 137
130 4 137 138
131 4 138 139
132 3 139 140
133 5 141 142
134 4 142 143
135 4 143 144
136 3 144 145
137 5 146 147
138 4 147 148
139 4 148 149
140 3 149 150
141 5 151 152
142 4 152 153
143 4 153 154
144 3 154 155
145 5 156 157
146 4 157 158
147 4 158 159
148 3 159 160
