# LAMMPS data file written by Ovito 3.0.0-dev349
160 atoms
160 bonds
6 atom types
12 bond types
-1.411827326 1.411827326 xlo xhi
-1.411827326 1.411827326 ylo yhi
-1.411827326 1.411827326 zlo zhi

Atoms # full

1 1 1 0.0 1.2140226364 -0.0358920768 0.318795532 0 0 0
2 1 2 0.0 -1.223498106 -0.2511482537 -0.0263993014 1 0 0
3 1 3 0.0 -0.8218526244 -0.5502197742 -0.0776501819 1 0 0
4 1 1 0.0 -0.8605855107 0.9726424217 -1.0106083155 1 0 1
5 1 2 0.0 -1.1922917366 0.9009661674 -1.3957620859 1 0 1
6 1 3 0.0 -1.4113121033 1.0493639708 1.0881433487 1 0 0
7 1 1 0.0 -0.2712545395 0.056432914 0.4029505551 1 -1 0
8 1 2 0.0 -0.3555219173 -0.2728554308 0.7055137753 1 -1 0
9 1 3 0.0 -0.3423662782 -0.3162875473 1.1655085087 1 -1 0
10 1 1 0.0 -1.3831273317 1.3023524284 -0.3038148582 0 -1 0
11 1 2 0.0 1.1155532598 -1.3559129238 -0.7137032151 -1 0 0
12 1 3 0.0 1.0433698893 -1.1710036993 -1.1004984379 -1 0 0
13 1 1 0.0 1.2257757187 -0.5204414725 0.5275048614 -1 0 0
14 1 2 0.0 1.3863222599 0.0024923116 0.7781816721 -1 0 0
15 1 3 0.0 -1.2862430811 0.5519532561 0.6406121254 0 0 0
16 1 1 0.0 -0.8266098499 -0.6041160226 -0.9311696887 -1 0 1
17 1 2 0.0 -0.592192173 -0.2178544551 -0.8792487383 -1 0 1
18 1 3 0.0 -0.2083435804 -0.0513818152 -0.7013583779 -1 0 1
19 1 1 0.0 0.5944094658 -1.1224360466 -0.5458424687 -1 0 1
20 1 2 0.0 0.7464395165 -0.8541401625 -0.7909045219 -1 0 1
21 1 3 0.0 0.6596254706 -0.6136838794 -1.1676551104 -1 0 1
22 1 1 0.0 0.9579312801 0.512819469 -0.9410661459 0 0 1
23 1 2 0.0 1.2296591997 0.5737760067 -1.3058291674 0 0 1
24 1 3 0.0 1.3869559765 0.4718914628 1.1917990446 0 0 0
25 1 1 0.0 1.1210366488 0.0963467956 -0.2602506876 0 0 1
26 1 2 0.0 1.1109834909 -0.3364570439 -0.04121143 0 0 1
27 1 3 0.0 1.2632763386 -0.7680894136 0.0705595836 0 0 1
28 1 1 0.0 0.5309098959 -1.0477474928 0.0029499775 0 0 0
29 1 2 0.0 0.4399229884 -0.8262028694 0.4875568748 0 0 0
30 1 3 0.0 0.120738402 -0.697073698 0.8012453318 0 0 0
31 1 1 0.0 -0.8610435724 0.0227868315 0.3083001077 0 1 0
32 1 2 0.0 -1.2231810093 0.3639173806 0.1243867353 0 1 0
33 1 3 0.0 1.1807982922 0.5524219871 0.0873972848 -1 1 0
34 1 1 0.0 0.5057786703 0.2024997324 1.0479784012 0 -1 -1
35 1 2 0.0 0.9074444175 0.0610676035 1.2959200144 0 -1 -1
36 1 3 0.0 1.0981066227 0.0291525871 -1.0870316029 0 -1 0
37 1 1 0.0 1.1141349077 1.1043345928 -1.30694139 0 0 1
38 1 2 0.0 0.8898898959 0.8398495317 1.1400595903 0 0 0
39 1 3 0.0 0.5705914497 0.812374413 0.7370063066 0 0 0
40 1 1 0.0 0.2624500096 -1.2922415733 0.4110272825 0 0 0
41 1 2 0.0 0.0576168783 1.185926795 0.3668898642 0 -1 0
42 1 3 0.0 -0.0094077867 0.7647357583 0.2250093222 0 -1 0
43 1 1 0.0 0.2338923365 -0.9305291772 -0.8963730931 0 0 0
44 1 2 0.0 -0.2122489661 -1.1143143177 -0.7591484189 0 0 0
45 1 3 0.0 -0.6447334886 -1.3259823322 -0.8711450696 0 0 0
46 1 1 0.0 -0.2201566398 -1.0994971991 0.5840314031 1 0 0
47 1 2 0.0 -0.4973299801 -0.7857980132 0.7786777616 1 0 0
48 1 3 0.0 -0.8059985042 -0.7091517448 0.9571263194 1 0 0
49 1 1 0.0 -1.0782061815 -0.3723219037 0.6964841485 0 1 0
50 1 2 0.0 -0.7517833114 -0.5412091613 0.3997060955 0 1 0
51 1 3 0.0 -0.5479624867 -0.9325020909 0.1608384699 0 1 0
52 1 1 0.0 -0.941219449 0.2495549023 0.8716154099 0 1 0
53 1 2 0.0 -0.5305203795 0.1979210824 1.0324726105 0 1 0
54 1 3 0.0 -0.0751616359 0.2366621941 0.9975754023 0 1 0
55 1 1 0.0 1.1260435581 -0.5337064266 -1.0050513744 -1 0 1
56 1 2 0.0 1.1308342218 -0.4127699435 1.4010996819 -1 0 0
57 1 3 0.0 1.0860142708 -0.543492198 1.088784337 -1 0 0
58 1 1 0.0 1.2843401432 0.9473785758 -0.7239829898 -1 0 0
59 1 2 0.0 -1.2954381704 1.3136211634 -1.116484642 0 0 0
60 1 3 0.0 -0.8825377226 1.4010362625 -1.3854320049 0 0 0
61 1 4 0.0 -1.2633666992 0.7960841656 -0.2990862131 1 0 0
62 1 2 0.0 -1.1836875677 0.9352381229 0.1628578454 1 0 0
63 1 6 0.0 -1.1384083033 1.1610611677 0.5247853398 1 0 0
64 1 2 0.0 -1.2542591095 -1.2807922363 0.790055573 1 1 0
65 1 5 0.0 -1.4083945751 -0.8571369648 0.8739772439 1 1 0
66 1 4 0.0 0.8140372038 -0.310406208 -0.6804824471 -1 0 0
67 1 2 0.0 0.6457929015 -0.0924822241 -0.2720635533 -1 0 0
68 1 6 0.0 0.6552085876 0.1084198132 0.0496391058 -1 0 0
69 1 2 0.0 0.7938984036 0.2748697102 0.4767057002 -1 0 0
70 1 5 0.0 0.9809484482 0.348512888 0.8250394464 -1 0 0
71 1 4 0.0 -0.9442794323 0.827031374 0.8760609627 0 -1 0
72 1 2 0.0 -0.6886478066 1.0986971855 1.0193969011 0 -1 0
73 1 6 0.0 -0.3806118369 -1.3794404268 1.0504975319 0 0 0
74 1 2 0.0 -0.0956562757 -1.0685220957 1.1513417959 0 0 0
75 1 5 0.0 0.3261215389 -0.904747963 1.3848454952 0 0 0
76 1 4 0.0 0.1582956761 0.5155653954 1.3161511421 0 0 -1
77 1 2 0.0 -0.0673068538 0.7561338544 -1.1975604296 0 0 0
78 1 6 0.0 -0.1744848043 1.0322678089 -0.8107945323 0 0 0
79 1 2 0.0 -0.2110906541 1.29728508 -0.3325696886 0 0 0
80 1 5 0.0 -0.204616189 -1.2878483534 0.074639082 0 1 0
81 1 4 0.0 0.7665884495 -1.3383047581 0.4211480916 -1 1 0
82 1 2 0.0 1.146594286 -1.3303531408 0.3737089336 -1 1 0
83 1 6 0.0 -1.3372459412 -1.274920702 0.1708228141 0 1 0
84 1 2 0.0 -1.0408631563 -1.1448299885 -0.1127298251 0 1 0
85 1 5 0.0 -0.8827377558 -0.8850308657 -0.4773338437 0 1 0
86 1 4 0.0 0.3559880555 1.3215117455 -0.2366393209 0 0 0
87 1 2 0.0 0.2698156536 0.9332565069 -0.3882649243 0 0 0
88 1 6 0.0 0.1931381524 0.6125216484 -0.6648507118 0 0 0
89 1 2 0.0 0.0462777987 0.3158510625 -0.9684385061 0 0 0
90 1 5 0.0 -0.194083944 0.0089677321 -1.2895706892 0 0 0
91 1 4 0.0 -0.1219953224 0.1499174684 -0.2527417243 0 0 0
92 1 2 0.0 0.2160419971 0.3448574245 -0.0357773975 0 0 0
93 1 6 0.0 0.5263963342 0.6089238524 0.1550551504 0 0 0
94 1 2 0.0 0.7798958421 0.8008235097 0.2346738279 0 0 0
95 1 5 0.0 1.1402263641 1.0575437546 0.0758323222 0 0 0
96 1 4 0.0 0.0281270277 -0.8214949965 0.1975438297 0 0 0
97 1 2 0.0 -0.2844935358 -0.4187547863 0.0516025312 0 0 0
98 1 6 0.0 -0.5977760553 -0.1032687724 -0.1512346715 0 0 0
99 1 2 0.0 -0.807287395 0.1951990873 -0.3530923128 0 0 0
100 1 5 0.0 -0.9012899995 0.5507017374 -0.6737149358 0 0 0
101 1 4 0.0 0.358890444 -0.6481072903 -0.4758598208 0 0 0
102 1 2 0.0 0.3756405413 -0.5090720654 -0.0948025882 0 0 0
103 1 6 0.0 0.3437473774 -0.3683146834 0.2475915998 0 0 0
104 1 2 0.0 0.2910255194 -0.0911825523 0.4731391966 0 0 0
105 1 5 0.0 0.1708997637 0.3186444342 0.4774612784 0 0 0
106 1 4 0.0 -1.3944427967 0.2751883864 -0.7331272364 0 0 0
107 1 2 0.0 -1.0893132687 0.442617029 -1.1404863596 0 0 0
108 1 6 0.0 -0.7068269253 0.5555105805 1.3841471672 0 0 -1
109 1 2 0.0 -0.3489924371 0.6699086428 1.1104249954 0 0 -1
110 1 5 0.0 0.0681188181 0.7551425695 0.8934746981 0 0 -1
111 1 4 0.0 0.8618165851 -0.7166653275 -0.2407956421 -1 0 0
112 1 2 0.0 1.2549247742 -0.5963133574 -0.4518789649 -1 0 0
113 1 6 0.0 -1.3065320253 -0.3992432654 -0.6787508726 0 0 0
114 1 2 0.0 -1.1617159843 -0.1548615843 -1.0603812933 0 0 0
115 1 5 0.0 -1.219352603 0.0619333014 -1.389269352 0 0 0
116 1 4 0.0 -1.1484107971 -0.8396542668 0.3567379713 -1 1 0
117 1 2 0.0 -0.8069919348 -1.163572669 0.5394658446 -1 1 0
118 1 6 0.0 -0.5627037287 1.3520466089 0.5632949471 -1 0 0
119 1 2 0.0 -0.3411374092 0.9235343337 0.640218854 -1 0 0
120 1 5 0.0 -0.2868122756 0.5036936402 0.6013203859 -1 0 0
121 1 4 0.0 -0.5152292848 -0.5538784266 -0.4983464181 1 0 0
122 1 2 0.0 -0.2213249952 -0.5831077695 -0.9350847006 1 0 0
123 1 6 0.0 0.1963242143 -0.4472016096 -1.3602501154 1 0 0
124 1 2 0.0 0.4979921579 -0.3700198531 1.0697063208 1 0 -1
125 1 5 0.0 0.820156157 -0.2493603975 0.6987607479 1 0 -1
126 1 4 0.0 -0.1729366779 0.6988742948 -0.2238107771 0 0 0
127 1 2 0.0 -0.3814322054 0.547277689 -0.5868050456 0 0 0
128 1 6 0.0 -0.56923908 0.323161602 -0.9782706499 0 0 0
129 1 2 0.0 -0.739310205 0.0650722459 -1.3036882877 0 0 0
130 1 5 0.0 -0.8454842567 -0.2731792331 1.167191267 0 0 -1
131 1 4 0.0 0.5177833438 -0.0719159469 -1.1894240379 0 0 0
132 1 2 0.0 0.5291999578 0.3227731287 -1.2248933315 0 0 0
133 1 6 0.0 0.5825349689 0.8688839078 -1.2471709251 0 0 0
134 1 2 0.0 0.6426482201 1.4097383022 -1.3625284433 0 0 0
135 1 5 0.0 0.8411708474 -0.9406566024 1.2828946114 0 1 -1
136 1 4 0.0 -1.4114570618 -0.92653054 -0.8716912866 1 1 0
137 1 2 0.0 -1.1323035955 -1.2863167524 -0.7158680558 1 1 0
138 1 6 0.0 -0.8782415986 1.163618803 -0.5155613422 1 0 0
139 1 2 0.0 -0.7168651819 0.7266252041 -0.2012913674 1 0 0
140 1 5 0.0 -0.5157143474 0.3636751771 0.0653772727 1 0 0
141 1 4 0.0 1.0646740198 -1.1845500469 -0.1481916755 -1 0 0
142 1 2 0.0 0.8999112844 1.2080332041 -0.3222582638 -1 -1 0
143 1 6 0.0 0.7834233642 0.6915320754 -0.4709198773 -1 -1 0
144 1 2 0.0 0.6266428232 0.2614487112 -0.5982916355 -1 -1 0
145 1 5 0.0 0.2601993084 -0.1213079393 -0.7176715732 -1 -1 0
146 1 4 0.0 -0.4574163556 1.0571978092 -1.2808454037 0 -1 0
147 1 2 0.0 -0.0649917647 1.1178863049 1.2777979374 0 -1 -1
148 1 6 0.0 0.2802145183 1.2872197628 1.0453902483 0 -1 -1
149 1 2 0.0 0.590899229 -1.2359805107 0.9037929177 0 0 -1
150 1 5 0.0 0.9153661728 -0.9297245741 0.7176924348 0 0 -1
151 1 4 0.0 0.7623357773 1.0701727867 -0.8305518031 0 -1 1
152 1 2 0.0 0.3603305519 1.2336884737 -0.9112549424 0 -1 1
153 1 6 0.0 0.0343643613 1.4116842747 -1.0818699598 0 -1 1
154 1 2 0.0 -0.2994954288 -1.2248317003 -1.2573990822 0 0 1
155 1 5 0.0 -0.5924937129 -0.9766308665 1.3269975185 0 0 0
156 1 4 0.0 -1.1593580246 -0.7783122063 -1.2889244556 1 0 0
157 1 2 0.0 1.3468067646 -1.0277731419 1.360699892 0 0 -1
158 1 6 0.0 1.0979324579 -1.3206182718 1.0931118727 0 0 -1
159 1 2 0.0 1.0364745855 1.2160730362 0.803789556 0 -1 -1
160 1 5 0.0 1.1597733498 0.9070926905 0.6030356288 0 -1 -1

Bonds

1 1 1 2
2 12 1 125
3 2 2 3
4 7 3 121
5 1 4 5
6 11 4 146
7 12 4 100
8 2 5 6
9 1 7 8
10 12 7 140
11 12 7 120
12 2 8 9
13 8 9 90
14 1 10 11
15 12 10 95
16 2 11 12
17 1 13 14
18 12 13 150
19 2 14 15
20 8 15 160
21 7 15 71
22 1 16 17
23 12 16 85
24 11 16 156
25 2 17 18
26 8 18 145
27 7 18 91
28 1 19 20
29 2 20 21
30 8 21 75
31 7 21 131
32 1 22 23
33 2 23 24
34 8 24 70
35 8 24 115
36 1 25 26
37 11 25 106
38 2 26 27
39 7 27 141
40 7 27 116
41 1 28 29
42 11 28 111
43 11 28 86
44 2 29 30
45 1 31 32
46 2 32 33
47 1 34 35
48 11 34 76
49 2 35 36
50 1 37 38
51 2 38 39
52 8 39 110
53 1 40 41
54 11 40 96
55 11 40 81
56 2 41 42
57 8 42 105
58 7 42 126
59 1 43 44
60 11 43 101
61 2 44 45
62 1 46 47
63 12 46 80
64 2 47 48
65 8 48 130
66 8 48 155
67 1 49 50
68 2 50 51
69 1 52 53
70 2 53 54
71 1 55 56
72 11 55 66
73 11 55 136
74 2 56 57
75 8 57 65
76 8 57 135
77 1 58 59
78 11 58 61
79 11 58 151
80 2 59 60
81 5 61 62
82 4 62 63
83 4 63 64
84 3 64 65
85 5 66 67
86 4 67 68
87 4 68 69
88 3 69 70
89 5 71 72
90 4 72 73
91 4 73 74
92 3 74 75
93 5 76 77
94 4 77 78
95 4 78 79
96 3 79 80
97 5 81 82
98 4 82 83
99 4 83 84
100 3 84 85
101 5 86 87
102 4 87 88
103 4 88 89
104 3 89 90
105 5 91 92
106 4 92 93
107 4 93 94
108 3 94 95
109 5 96 97
110 4 97 98
111 4 98 99
112 3 99 100
113 5 101 102
114 4 102 103
115 4 103 104
116 3 104 105
117 5 106 107
118 4 107 108
119 4 108 109
120 3 109 110
121 5 111 112
122 4 112 113
123 4 113 114
124 3 114 115
125 5 116 117
126 4 117 118
127 4 118 119
128 3 119 120
129 5 121 122
130 4 122 123
131 4 123 124
132 3 124 125
133 5 126 127
134 4 127 128
135 4 128 129
136 3 129 130
137 5 131 132
138 4 132 133
139 4 133 134
140 3 134 135
141 5 136 137
142 4 137 138
143 4 138 139
144 3 139 140
145 5 141 142
146 4 142 143
147 4 143 144
148 3 144 145
149 5 146 147
150 4 147 148
151 4 148 149
152 3 149 150
153 5 151 152
154 4 152 153
155 4 153 154
156 3 154 155
157 5 156 157
158 4 157 158
159 4 158 159
160 3 159 160
