# LAMMPS data file written by Ovito 3.0.0-dev349
160 atoms
160 bonds
6 atom types
12 bond types
-1.4329258205 1.4329258205 xlo xhi
-1.4329258205 1.4329258205 ylo yhi
-1.4329258205 1.4329258205 zlo zhi

Atoms # full

1 1 1 0.0 1.0424021482 -0.253408283 0.2975506783 0 0 0
2 1 2 0.0 -1.2298226357 -0.2875524461 0.1478529274 1 0 0
3 1 3 0.0 -0.8166967034 -0.6198346019 -0.0384593569 1 0 0
4 1 1 0.0 -0.7995401621 0.8963205814 -1.1815772057 1 0 1
5 1 2 0.0 -1.1332632303 0.8533161879 1.3169548512 1 0 0
6 1 3 0.0 -1.383118391 1.0213729143 1.0044895411 1 0 0
7 1 1 0.0 -0.2632340789 0.229113549 0.2781487107 1 -1 0
8 1 2 0.0 -0.4227231443 -0.0736170635 0.5252023935 1 -1 0
9 1 3 0.0 -0.3148216009 -0.352303952 0.9356027842 1 -1 0
10 1 1 0.0 -1.3768138885 1.3483731747 -0.2620065808 0 -1 0
11 1 2 0.0 1.1871740818 -1.3778978586 -0.610599041 -1 0 0
12 1 3 0.0 1.0770882368 -1.3627660275 -1.0818061829 -1 0 0
13 1 1 0.0 -1.4118779898 -0.5294169784 0.5554796457 0 0 0
14 1 2 0.0 1.3031798601 -0.1075021252 0.6773576736 -1 0 0
15 1 3 0.0 -1.4038398266 0.3940174282 0.5730926394 0 0 0
16 1 1 0.0 -0.7428867221 -0.8861932755 -0.9304625392 -1 0 1
17 1 2 0.0 -0.62403512 -0.4448346496 -0.8876642585 -1 0 1
18 1 3 0.0 -0.3103859127 -0.1242904067 -0.865890801 -1 0 1
19 1 1 0.0 0.5447923541 -1.170075655 -0.4856242537 -1 0 1
20 1 2 0.0 0.7295199037 -0.9265209436 -0.868461132 -1 0 1
21 1 3 0.0 0.7067156434 -0.6560408473 -1.2673028708 -1 0 1
22 1 1 0.0 1.0088956356 0.4709208906 -0.9027266502 0 0 1
23 1 2 0.0 1.1444201469 0.5441967249 -1.2766917944 0 0 1
24 1 3 0.0 1.37461555 0.4114283919 1.2876297235 0 0 0
25 1 1 0.0 1.1114367247 0.1240307763 -0.5663210154 0 0 1
26 1 2 0.0 1.1720987558 -0.2000961602 -0.1866054982 0 0 1
27 1 3 0.0 1.2009130716 -0.7296625376 0.0661146566 0 0 1
28 1 1 0.0 0.5369812846 -0.9914860725 -0.0146874283 0 0 0
29 1 2 0.0 0.585347116 -0.8287606239 0.3772535026 0 0 0
30 1 3 0.0 0.3770329952 -0.7449412942 0.7610931993 0 0 0
31 1 1 0.0 -0.9017816782 0.1643483192 0.2782285511 0 1 0
32 1 2 0.0 -1.3730777502 0.2599929869 0.0725514442 0 1 0
33 1 3 0.0 1.2225142717 0.5203595161 -0.0803855881 -1 1 0
34 1 1 0.0 0.2046525776 0.395534724 1.1742368937 0 -1 -1
35 1 2 0.0 0.6029187441 0.192466706 1.1622979641 0 -1 -1
36 1 3 0.0 1.0512748957 0.0201730952 1.389218092 0 -1 -1
37 1 1 0.0 1.2011193037 1.0684812069 -1.3934559822 0 0 1
38 1 2 0.0 0.9630445242 0.8733897805 1.151781559 0 0 0
39 1 3 0.0 0.611048758 0.9152258039 0.8429806232 0 0 0
40 1 1 0.0 0.202352941 -1.2048990726 0.4638150334 0 0 0
41 1 2 0.0 0.0238012988 1.3167418242 0.5102199912 0 -1 0
42 1 3 0.0 -0.0196705367 0.9303156137 0.356259644 0 -1 0
43 1 1 0.0 0.1996937245 -0.9182239771 -0.7875067592 0 0 0
44 1 2 0.0 -0.2659193277 -1.1734120846 -0.7308414578 0 0 0
45 1 3 0.0 -0.6766961217 -1.3407962322 -0.9459473491 0 0 0
46 1 1 0.0 -0.294965148 -1.0328183174 0.583075285 1 0 0
47 1 2 0.0 -0.6382530928 -0.9597539306 0.8738469481 1 0 0
48 1 3 0.0 -0.6984339356 -0.7647881508 1.3474314213 1 0 0
49 1 1 0.0 -1.2472890615 -0.6174961329 1.3129303455 0 1 0
50 1 2 0.0 -1.0677037239 -0.4033060968 1.0487985611 0 1 0
51 1 3 0.0 -0.9556804299 -0.3161808252 0.64529562 0 1 0
52 1 1 0.0 -1.2018046379 0.1289605051 0.9510177374 0 1 0
53 1 2 0.0 -0.7208034992 0.0751086399 1.0338072777 0 1 0
54 1 3 0.0 -0.2588163018 0.2525497675 0.9526807666 0 1 0
55 1 1 0.0 1.1882151365 -0.4436816871 -1.0763562918 -1 0 1
56 1 2 0.0 1.1459321976 -0.4654605687 1.4277813435 -1 0 0
57 1 3 0.0 1.0812785625 -0.6905907989 1.151009202 -1 0 0
58 1 1 0.0 -1.3370094299 0.8763346076 -0.9451444745 0 0 0
59 1 2 0.0 -1.1549654007 1.2528173923 -1.1539174318 0 0 0
60 1 3 0.0 -0.8616492748 1.4047023058 1.3226625919 0 0 -1
61 1 4 0.0 -1.2721287012 0.818174839 -0.3913327456 1 0 0
62 1 2 0.0 -1.1752789021 0.8627883196 0.066752851 1 0 0
63 1 6 0.0 -1.093159914 1.106321454 0.4038452208 1 0 0
64 1 2 0.0 -1.187531352 -1.3764102459 0.752987206 1 1 0
65 1 5 0.0 -1.4065186977 -0.9864314198 0.973305583 1 1 0
66 1 4 0.0 0.8257812858 -0.3200603426 -0.7303803563 -1 0 0
67 1 2 0.0 0.6223199964 -0.2143382281 -0.3425285518 -1 0 0
68 1 6 0.0 0.6498094797 0.0268257353 0.0772988871 -1 0 0
69 1 2 0.0 0.8189315796 0.233354032 0.4813739955 -1 0 0
70 1 5 0.0 1.0481345654 0.3438759148 0.938346386 -1 0 0
71 1 4 0.0 -1.0277500153 0.6571452022 0.8332277536 0 -1 0
72 1 2 0.0 -0.7820121646 1.0449815989 0.9804355502 0 -1 0
73 1 6 0.0 -0.3999980092 -1.3882293701 1.0203535557 0 0 0
74 1 2 0.0 -0.0637975261 -1.1002818346 1.0644153357 0 0 0
75 1 5 0.0 0.2947960198 -0.8703692555 1.2707359791 0 0 0
76 1 4 0.0 0.0288092867 0.738258481 -1.3022341728 0 0 0
77 1 2 0.0 -0.0888522044 1.0098814964 -0.9667696357 0 0 0
78 1 6 0.0 -0.1362121105 1.2050563097 -0.633952558 0 0 0
79 1 2 0.0 -0.2748360038 1.4159747362 -0.301430434 0 0 0
80 1 5 0.0 -0.3675441444 -1.2556701899 0.1129397005 0 1 0
81 1 4 0.0 0.6951429844 -1.3664940596 0.3780209124 -1 1 0
82 1 2 0.0 1.1548807621 -1.4271947145 0.3514519334 -1 1 0
83 1 6 0.0 -1.3248651028 -1.355700016 0.2350705415 0 1 0
84 1 2 0.0 -0.9671187401 -1.2269322872 -0.0885094851 0 1 0
85 1 5 0.0 -0.7620081902 -1.0628596544 -0.4648701251 0 1 0
86 1 4 0.0 0.318724215 1.3849500418 -0.1304404438 0 0 0
87 1 2 0.0 0.2864814103 0.946434617 -0.4315117002 0 0 0
88 1 6 0.0 0.1992705017 0.5954539776 -0.8393783569 0 0 0
89 1 2 0.0 0.0776866078 0.2699265778 -1.172799468 0 0 0
90 1 5 0.0 -0.128020525 -0.0627892613 1.392296195 0 0 -1
91 1 4 0.0 -0.2293789685 0.1950277388 -0.4584877491 0 0 0
92 1 2 0.0 0.0296055954 0.3784418106 -0.1710259318 0 0 0
93 1 6 0.0 0.3526153862 0.5487008095 0.0745747238 0 0 0
94 1 2 0.0 0.7566771507 0.7448186278 0.1390203387 0 0 0
95 1 5 0.0 1.1964643002 1.0201231241 0.0904947892 0 0 0
96 1 4 0.0 0.0124277519 -0.8211720586 0.2194569707 0 0 0
97 1 2 0.0 -0.280189395 -0.3870556653 0.0222805049 0 0 0
98 1 6 0.0 -0.5609157681 -0.0556287691 -0.1383819878 0 0 0
99 1 2 0.0 -0.7844981551 0.2759719491 -0.3962651193 0 0 0
100 1 5 0.0 -0.8829275966 0.6087646484 -0.7411442995 0 0 0
101 1 4 0.0 0.2732147276 -0.656942904 -0.3193112612 0 0 0
102 1 2 0.0 0.3270323575 -0.4501256049 0.0541834496 0 0 0
103 1 6 0.0 0.3229480088 -0.3007424176 0.39046368 0 0 0
104 1 2 0.0 0.2398946732 0.0485980324 0.6058254242 0 0 0
105 1 5 0.0 0.1508405507 0.5003324747 0.5581769347 0 0 0
106 1 4 0.0 -1.3576601744 0.2962426841 -0.9185474515 0 0 0
107 1 2 0.0 -1.0037534237 0.4335510731 -1.2736295462 0 0 0
108 1 6 0.0 -0.5964041948 0.5828245878 1.2903411388 0 0 -1
109 1 2 0.0 -0.2874080539 0.7592395544 1.0902863741 0 0 -1
110 1 5 0.0 0.0626579151 0.8981292844 0.9230421185 0 0 -1
111 1 4 0.0 0.843698442 -0.7603598833 -0.3024643362 -1 0 0
112 1 2 0.0 1.1831314564 -0.592399478 -0.459913522 -1 0 0
113 1 6 0.0 -1.3470224142 -0.4596851468 -0.6558927298 0 0 0
114 1 2 0.0 -1.2077134848 -0.2612042427 -1.0637772083 0 0 0
115 1 5 0.0 -1.2697405815 -0.0221251771 -1.4144353867 0 0 0
116 1 4 0.0 -1.1955356598 -0.8503758311 0.2117904723 -1 1 0
117 1 2 0.0 -0.9891597629 -1.0224125385 0.4042517245 -1 1 0
118 1 6 0.0 -0.6812009215 -1.3662742376 0.5268129706 -1 1 0
119 1 2 0.0 -0.507641077 1.0909525156 0.5549367666 -1 0 0
120 1 5 0.0 -0.4255628288 0.63686198 0.5405631065 -1 0 0
121 1 4 0.0 -0.4622531235 -0.5763856769 -0.4511428475 1 0 0
122 1 2 0.0 -0.1376917213 -0.5973021984 -0.8390088677 1 0 0
123 1 6 0.0 0.2394603938 -0.4347308278 -1.2492455244 1 0 0
124 1 2 0.0 0.5084221363 -0.3841595054 1.1253707409 1 0 -1
125 1 5 0.0 0.7840476036 -0.3306992054 0.715077877 1 0 -1
126 1 4 0.0 -0.109392412 0.8890275359 -0.1439157128 0 0 0
127 1 2 0.0 -0.3040543497 0.6731764078 -0.5949546099 0 0 0
128 1 6 0.0 -0.4597649872 0.4458843172 -0.9698658586 0 0 0
129 1 2 0.0 -0.5433958769 0.1341037601 -1.2626447678 0 0 0
130 1 5 0.0 -0.6711876392 -0.2346550375 -1.3807630539 0 0 0
131 1 4 0.0 0.6456074715 -0.1069046631 -1.2284419537 0 0 0
132 1 2 0.0 0.5818805695 0.3961170614 -1.2347353697 0 0 0
133 1 6 0.0 0.6016502976 0.8824070692 -1.2956943512 0 0 0
134 1 2 0.0 0.6855447292 1.2223789692 -1.3979547024 0 0 0
135 1 5 0.0 0.7858449817 -1.1148478985 1.3449741602 0 1 -1
136 1 4 0.0 -1.4207639694 -0.9187889695 -0.8758895993 1 1 0
137 1 2 0.0 -1.1756389141 -1.2631828785 -0.6722717285 1 1 0
138 1 6 0.0 -0.8667756319 1.2489919662 -0.5074505806 1 0 0
139 1 2 0.0 -0.698815167 0.8878635168 -0.2451432049 1 0 0
140 1 5 0.0 -0.4797566831 0.5332512856 -0.0514352135 1 0 0
141 1 4 0.0 0.9994688034 -1.2290955782 -0.0815871507 -1 0 0
142 1 2 0.0 0.801952064 1.0789282322 -0.2534082234 -1 -1 0
143 1 6 0.0 0.727301538 0.6018598676 -0.4180737734 -1 -1 0
144 1 2 0.0 0.5085952282 0.1695363522 -0.6586037874 -1 -1 0
145 1 5 0.0 0.2327441573 -0.0730595142 -0.7919528484 -1 -1 0
146 1 4 0.0 -0.347799778 1.1027039289 -1.3824422359 0 -1 0
147 1 2 0.0 0.1119936556 1.2802782059 1.2513366938 0 -1 -1
148 1 6 0.0 0.4417296946 -1.4017491341 1.0342518091 0 0 -1
149 1 2 0.0 0.6935309768 -1.1770057678 0.8456432223 0 0 -1
150 1 5 0.0 1.0672390461 -0.8957960606 0.6566883326 0 0 -1
151 1 4 0.0 1.028881073 1.0342530012 -0.876308918 0 -1 1
152 1 2 0.0 0.6106787324 1.2018998861 -0.8804945946 0 -1 1
153 1 6 0.0 0.2546436191 -1.4107301235 -0.9900417924 0 0 1
154 1 2 0.0 -0.0117628742 -1.2385481596 -1.1992907524 0 0 1
155 1 5 0.0 -0.2996193171 -0.9946660995 -1.2798439264 0 0 1
156 1 4 0.0 -1.0829133987 -1.0633426905 -1.2175717354 1 0 0
157 1 2 0.0 -1.421549201 -1.2181440592 1.4303637743 1 0 -1
158 1 6 0.0 1.1730505228 -1.3890039921 1.1316264868 0 0 -1
159 1 2 0.0 1.0819381475 1.2266463041 0.8030518889 0 -1 -1
160 1 5 0.0 1.1474078894 0.7887279391 0.5983707905 0 -1 -1

Bonds

1 1 1 2
2 12 1 125
3 2 2 3
4 7 3 121
5 1 4 5
6 11 4 146
7 12 4 100
8 2 5 6
9 1 7 8
10 12 7 140
11 12 7 120
12 2 8 9
13 8 9 90
14 1 10 11
15 12 10 95
16 2 11 12
17 1 13 14
18 12 13 150
19 2 14 15
20 8 15 160
21 7 15 71
22 1 16 17
23 12 16 85
24 11 16 156
25 2 17 18
26 8 18 145
27 7 18 91
28 1 19 20
29 2 20 21
30 8 21 75
31 7 21 131
32 1 22 23
33 2 23 24
34 8 24 70
35 8 24 115
36 1 25 26
37 11 25 106
38 2 26 27
39 7 27 141
40 7 27 116
41 1 28 29
42 11 28 111
43 11 28 86
44 2 29 30
45 1 31 32
46 2 32 33
47 1 34 35
48 11 34 76
49 2 35 36
50 1 37 38
51 2 38 39
52 8 39 110
53 1 40 41
54 11 40 96
55 11 40 81
56 2 41 42
57 8 42 105
58 7 42 126
59 1 43 44
60 11 43 101
61 2 44 45
62 1 46 47
63 12 46 80
64 2 47 48
65 8 48 130
66 8 48 155
67 1 49 50
68 2 50 51
69 1 52 53
70 2 53 54
71 1 55 56
72 11 55 66
73 11 55 136
74 2 56 57
75 8 57 65
76 8 57 135
77 1 58 59
78 11 58 61
79 11 58 151
80 2 59 60
81 5 61 62
82 4 62 63
83 4 63 64
84 3 64 65
85 5 66 67
86 4 67 68
87 4 68 69
88 3 69 70
89 5 71 72
90 4 72 73
91 4 73 74
92 3 74 75
93 5 76 77
94 4 77 78
95 4 78 79
96 3 79 80
97 5 81 82
98 4 82 83
99 4 83 84
100 3 84 85
101 5 86 87
102 4 87 88
103 4 88 89
104 3 89 90
105 5 91 92
106 4 92 93
107 4 93 94
108 3 94 95
109 5 96 97
110 4 97 98
111 4 98 99
112 3 99 100
113 5 101 102
114 4 102 103
115 4 103 104
116 3 104 105
117 5 106 107
118 4 107 108
119 4 108 109
120 3 109 110
121 5 111 112
122 4 112 113
123 4 113 114
124 3 114 115
125 5 116 117
126 4 117 118
127 4 118 119
128 3 119 120
129 5 121 122
130 4 122 123
131 4 123 124
132 3 124 125
133 5 126 127
134 4 127 128
135 4 128 129
136 3 129 130
137 5 131 132
138 4 132 133
139 4 133 134
140 3 134 135
141 5 136 137
142 4 137 138
143 4 138 139
144 3 139 140
145 5 141 142
146 4 142 143
147 4 143 144
148 3 144 145
149 5 146 147
150 4 147 148
151 4 148 149
152 3 149 150
153 5 151 152
154 4 152 153
155 4 153 154
156 3 154 155
157 5 156 157
158 4 157 158
159 4 158 159
160 3 159 160
