# LAMMPS data file written by Ovito 3.0.0-dev349
160 atoms
160 bonds
6 atom types
12 bond types
-1.4397064445 1.4397064445 xlo xhi
-1.4397064445 1.4397064445 ylo yhi
-1.4397064445 1.4397064445 zlo zhi

Atoms # full

1 1 1 0.0 1.0270277262 -0.3274976313 0.2840445042 0 0 0
2 1 2 0.0 -1.2776873112 -0.3357374966 0.1133541837 1 0 0
3 1 3 0.0 -0.8237321973 -0.5788534284 0.0041758977 1 0 0
4 1 1 0.0 -0.9586036801 0.9266622663 -1.0128538609 1 0 1
5 1 2 0.0 -1.2118034363 0.8272945881 -1.4288008213 1 0 1
6 1 3 0.0 -1.4088733196 0.9691002369 1.0491259098 1 0 0
7 1 1 0.0 -0.3166017234 0.2884323001 0.4704343975 1 -1 0
8 1 2 0.0 -0.2201017439 -0.0827668682 0.7337695956 1 -1 0
9 1 3 0.0 -0.0590301193 -0.2310808003 1.1266847849 1 -1 0
10 1 1 0.0 1.3779027462 1.2740888596 -0.2717552483 -1 -1 0
11 1 2 0.0 1.1343983412 -1.3818596601 -0.647711575 -1 0 0
12 1 3 0.0 1.0670945644 -1.3048285246 -1.0862246752 -1 0 0
13 1 1 0.0 -1.4188398123 -0.5355967283 0.5760763884 0 0 0
14 1 2 0.0 1.3892381191 -0.0613557659 0.6017366648 -1 0 0
15 1 3 0.0 -1.3735432625 0.4041577578 0.5234507918 0 0 0
16 1 1 0.0 -0.74890697 -0.7347999811 -0.9040742517 -1 0 1
17 1 2 0.0 -0.5547863245 -0.2686001658 -0.9054843187 -1 0 1
18 1 3 0.0 -0.1962184906 -0.0388792939 -0.8984498382 -1 0 1
19 1 1 0.0 0.6337448359 -1.1394231319 -0.5010407567 -1 0 1
20 1 2 0.0 0.6476784348 -0.9660977721 -0.8965469003 -1 0 1
21 1 3 0.0 0.5515041351 -0.7266582847 -1.2089775801 -1 0 1
22 1 1 0.0 1.0345607996 0.5348090529 -0.8654076457 0 0 1
23 1 2 0.0 1.16426754 0.5221152902 -1.3575379848 0 0 1
24 1 3 0.0 1.3737560511 0.428817302 1.1670687199 0 0 0
25 1 1 0.0 1.1276167631 -0.0157355107 -0.6356449127 0 0 1
26 1 2 0.0 1.2062802315 -0.2833866179 -0.2434453964 0 0 1
27 1 3 0.0 1.2290815115 -0.7159193158 0.0729261041 0 0 1
28 1 1 0.0 0.5476897359 -0.9628394246 0.0712307841 0 0 0
29 1 2 0.0 0.4688645601 -0.78479141 0.40749982 0 0 0
30 1 3 0.0 0.1707048416 -0.7177135944 0.709183991 0 0 0
31 1 1 0.0 -0.909847796 -0.0047598374 0.092259869 0 1 0
32 1 2 0.0 -1.3478446007 0.1500161588 -0.0453498289 0 1 0
33 1 3 0.0 1.2047554255 0.3949527144 -0.3684531152 -1 1 0
34 1 1 0.0 0.5195115805 0.4417416155 0.9631513357 0 -1 -1
35 1 2 0.0 0.890719831 0.1061530262 1.200294137 0 -1 -1
36 1 3 0.0 1.038620472 -0.0844084918 -1.2410385609 0 -1 0
37 1 1 0.0 1.2279430628 1.1349180937 -1.4189124107 0 0 1
38 1 2 0.0 0.8706307411 0.9037153721 1.1474980116 0 0 0
39 1 3 0.0 0.6674386859 0.8814643621 0.7732656598 0 0 0
40 1 1 0.0 0.1866500974 -1.2597235441 0.5219541192 0 0 0
41 1 2 0.0 0.0973423719 1.287766099 0.2998975515 0 -1 0
42 1 3 0.0 -0.0033650994 0.9486756921 0.2311332077 0 -1 0
43 1 1 0.0 0.0289789289 -1.1486176252 -0.5538238883 0 0 0
44 1 2 0.0 -0.4277981818 -1.1471412182 -0.6973308325 0 0 0
45 1 3 0.0 -0.7532503605 -1.2554728985 -0.9997708201 0 0 0
46 1 1 0.0 -0.481233269 -0.7751638293 0.4117062986 1 0 0
47 1 2 0.0 -0.63007617 -0.8599402308 0.9025641084 1 0 0
48 1 3 0.0 -0.6310920715 -0.7340800762 1.3499473333 1 0 0
49 1 1 0.0 1.2853486538 -0.2629096508 1.0826400518 -1 1 0
50 1 2 0.0 -1.1466001272 -0.3718231022 1.0809944868 0 1 0
51 1 3 0.0 -0.6937040091 -0.3247765601 0.9294081926 0 1 0
52 1 1 0.0 -0.9804475904 0.1642898917 0.9049910903 0 1 0
53 1 2 0.0 -0.5574556589 0.4326517284 0.9051910639 0 1 0
54 1 3 0.0 -0.0555096269 0.4357069135 0.9675856233 0 1 0
55 1 1 0.0 1.1194198132 -0.6847475171 -1.0081108809 -1 0 1
56 1 2 0.0 1.160385251 -0.5887244344 -1.4037151337 -1 0 1
57 1 3 0.0 1.1072345972 -0.7435495257 1.1154586077 -1 0 0
58 1 1 0.0 1.3942140341 0.9190053344 -0.9052449465 -1 0 0
59 1 2 0.0 -1.2417792082 1.3513835669 -1.1684199572 0 0 0
60 1 3 0.0 -1.038289547 -1.3963034153 1.2779636383 0 1 -1
61 1 4 0.0 -1.3129281998 0.7416696548 -0.4314316511 1 0 0
62 1 2 0.0 -1.2098784447 0.8201134205 0.01308259 1 0 0
63 1 6 0.0 -1.1333976984 1.0773339272 0.3990387321 1 0 0
64 1 2 0.0 -1.2109628916 1.4267293215 0.6614117026 1 0 0
65 1 5 0.0 -1.3655372858 -1.0321614742 0.8845706582 1 1 0
66 1 4 0.0 0.757813096 -0.431972295 -0.7005695105 -1 0 0
67 1 2 0.0 0.6708647609 -0.254655987 -0.324262023 -1 0 0
68 1 6 0.0 0.6886947751 -0.016609313 -0.0211533159 -1 0 0
69 1 2 0.0 0.8533995152 0.2288901359 0.4036955833 -1 0 0
70 1 5 0.0 1.0648822784 0.3378634453 0.7523476481 -1 0 0
71 1 4 0.0 -1.0314924717 0.6988123655 0.8244138956 0 -1 0
72 1 2 0.0 -0.7772007585 1.0135426521 1.0111377239 0 -1 0
73 1 6 0.0 -0.476367414 1.4351229668 1.1025924683 0 -1 0
74 1 2 0.0 -0.1330596656 -1.1417412758 1.1333011389 0 0 0
75 1 5 0.0 0.1673370898 -0.965302527 1.3924992085 0 0 0
76 1 4 0.0 0.2317307889 0.6543676853 1.3634656668 0 0 -1
77 1 2 0.0 0.0515819974 0.9043271542 -1.1667758226 0 0 0
78 1 6 0.0 -0.18607454 1.0979244709 -0.7153729796 0 0 0
79 1 2 0.0 -0.2716872692 1.3306367397 -0.3087100089 0 0 0
80 1 5 0.0 -0.4235073626 -1.2270894051 0.0575803556 0 1 0
81 1 4 0.0 0.6611825228 -1.3143393993 0.4520592391 -1 1 0
82 1 2 0.0 1.0848237276 -1.3741285801 0.3720645308 -1 1 0
83 1 6 0.0 1.428730607 -1.284183383 0.1685583144 -1 1 0
84 1 2 0.0 -1.1693623066 -1.1374616623 -0.1556943059 0 1 0
85 1 5 0.0 -0.9873442054 -0.9211874604 -0.4623268843 0 1 0
86 1 4 0.0 0.3492400646 -1.3916053772 -0.1101018339 0 1 0
87 1 2 0.0 0.268224299 1.1426820755 -0.3743955791 0 0 0
88 1 6 0.0 0.1912744343 0.7535566092 -0.6519775987 0 0 0
89 1 2 0.0 0.1584762186 0.4065732062 -0.9931184649 0 0 0
90 1 5 0.0 0.0741347 0.1228254288 -1.3045661449 0 0 0
91 1 4 0.0 -0.1115080193 0.2016645074 -0.4621124864 0 0 0
92 1 2 0.0 0.194001317 0.3433298171 -0.1369938701 0 0 0
93 1 6 0.0 0.5218904018 0.5374078751 0.1006083786 0 0 0
94 1 2 0.0 0.8125615716 0.6941877604 0.1611511707 0 0 0
95 1 5 0.0 1.1556323767 0.9484626651 0.0856012329 0 0 0
96 1 4 0.0 -0.0155610209 -0.8925160766 0.2479262054 0 0 0
97 1 2 0.0 -0.2433904707 -0.5180462003 -7.547418e-04 0 0 0
98 1 6 0.0 -0.4887254238 -0.1473433822 -0.2080257684 0 0 0
99 1 2 0.0 -0.699649334 0.1538833827 -0.422252506 0 0 0
100 1 5 0.0 -0.8917412162 0.5298553109 -0.6772662401 0 0 0
101 1 4 0.0 0.2196688205 -0.753924787 -0.28660357 0 0 0
102 1 2 0.0 0.3680716753 -0.4274360836 0.0326569155 0 0 0
103 1 6 0.0 0.3586532176 -0.2205062211 0.3547948301 0 0 0
104 1 2 0.0 0.3519183099 0.1347602308 0.555218637 0 0 0
105 1 5 0.0 0.2247761637 0.6384196281 0.5486872196 0 0 0
106 1 4 0.0 -1.3859144449 0.2256315053 -0.932166934 0 0 0
107 1 2 0.0 -1.0291132927 0.4196343422 -1.1867302656 0 0 0
108 1 6 0.0 -0.6661311388 0.6809411049 1.4317499399 0 0 -1
109 1 2 0.0 -0.2690154016 0.8477571607 1.2157152891 0 0 -1
110 1 5 0.0 0.1064373404 0.9276767969 0.935845077 0 0 -1
111 1 4 0.0 0.8589668274 -0.7762794495 -0.2999917865 -1 0 0
112 1 2 0.0 1.2633725405 -0.7291619778 -0.4806112051 -1 0 0
113 1 6 0.0 -1.2937700748 -0.5775421262 -0.7616562843 0 0 0
114 1 2 0.0 -1.1760385036 -0.2803176641 -1.1461305618 0 0 0
115 1 5 0.0 -1.2675658464 0.0300734658 1.401209712 0 0 -1
116 1 4 0.0 -1.1842472553 -0.8601717353 0.3102880418 -1 1 0
117 1 2 0.0 -0.9059839845 -1.0658080578 0.4597304761 -1 1 0
118 1 6 0.0 -0.5457668304 -1.3429487944 0.5660073161 -1 1 0
119 1 2 0.0 -0.3329216838 1.2220923901 0.6474958062 -1 0 0
120 1 5 0.0 -0.3094061613 0.799135983 0.6403368711 -1 0 0
121 1 4 0.0 -0.5175702572 -0.6674156785 -0.411903739 1 0 0
122 1 2 0.0 -0.2032361776 -0.6490254402 -0.8238156438 1 0 0
123 1 6 0.0 0.0546239391 -0.4932276905 -1.2488406897 1 0 0
124 1 2 0.0 0.4132427275 -0.4155910909 1.1695451736 1 0 -1
125 1 5 0.0 0.75028193 -0.3606617451 0.7345805168 1 0 -1
126 1 4 0.0 -0.1812934577 0.7179220319 -0.2307150066 0 0 0
127 1 2 0.0 -0.3443462551 0.5951492786 -0.6485731006 0 0 0
128 1 6 0.0 -0.4715524316 0.4077609479 -1.0610866547 0 0 0
129 1 2 0.0 -0.5384748578 0.138969034 -1.3066160679 0 0 0
130 1 5 0.0 -0.60262537 -0.2564397752 1.4366867542 0 0 -1
131 1 4 0.0 0.548342526 -0.1731891036 -1.2308155298 0 0 0
132 1 2 0.0 0.6137008071 0.2882208526 -1.2182668447 0 0 0
133 1 6 0.0 0.6488775611 0.7910548449 -1.2953852415 0 0 0
134 1 2 0.0 0.7417271137 1.280025363 -1.400375843 0 0 0
135 1 5 0.0 0.8284941912 -1.1320357323 1.331563592 0 1 -1
136 1 4 0.0 -1.386339426 -1.0954852104 -0.8651142716 1 1 0
137 1 2 0.0 -1.1087802649 1.4101679325 -0.6227260232 1 0 0
138 1 6 0.0 -0.8578689694 1.1189441681 -0.4794947505 1 0 0
139 1 2 0.0 -0.7030574083 0.7249911427 -0.2421932966 1 0 0
140 1 5 0.0 -0.5577115417 0.4201870263 0.0291861072 1 0 0
141 1 4 0.0 0.9658123851 -1.2703489065 -0.1359516084 -1 0 0
142 1 2 0.0 0.8444397449 1.1737977266 -0.2497135401 -1 -1 0
143 1 6 0.0 0.7637886405 0.7984824777 -0.468739301 -1 -1 0
144 1 2 0.0 0.6267820001 0.2699874938 -0.590672493 -1 -1 0
145 1 5 0.0 0.2756971121 -0.0781551152 -0.7743189335 -1 -1 0
146 1 4 0.0 -0.4917453527 1.1237932444 -1.1563699245 0 -1 0
147 1 2 0.0 -0.0401322953 1.2904393673 1.3714104891 0 -1 -1
148 1 6 0.0 0.3370865881 -1.3998790979 1.0610309839 0 0 -1
149 1 2 0.0 0.7067764997 -1.0066332817 0.8429620266 0 0 -1
150 1 5 0.0 1.0447112322 -0.837553978 0.6269680262 0 0 -1
151 1 4 0.0 0.8966876864 1.0310666561 -0.8709124327 0 -1 1
152 1 2 0.0 0.58715415 1.1690890789 -0.8785462379 0 -1 1
153 1 6 0.0 0.1847139597 -1.4262440205 -0.9886861444 0 0 1
154 1 2 0.0 -0.1157351881 -1.21918118 -1.0895668268 0 0 1
155 1 5 0.0 -0.3524906933 -1.049834609 -1.2621718645 0 0 1
156 1 4 0.0 -1.1222958565 -0.829595387 -1.2418898344 1 0 0
157 1 2 0.0 1.3792951107 -1.0935256481 1.361646533 0 0 -1
158 1 6 0.0 1.1307512522 1.4285523891 1.0224704742 0 -1 -1
159 1 2 0.0 1.1036024094 1.1755248308 0.737924397 0 -1 -1
160 1 5 0.0 1.2051120996 0.8274419904 0.5676904917 0 -1 -1

Bonds

1 1 1 2
2 12 1 125
3 2 2 3
4 7 3 121
5 1 4 5
6 11 4 146
7 12 4 100
8 2 5 6
9 1 7 8
10 12 7 140
11 12 7 120
12 2 8 9
13 8 9 90
14 1 10 11
15 12 10 95
16 2 11 12
17 1 13 14
18 12 13 150
19 2 14 15
20 8 15 160
21 7 15 71
22 1 16 17
23 12 16 85
24 11 16 156
25 2 17 18
26 8 18 145
27 7 18 91
28 1 19 20
29 2 20 21
30 8 21 75
31 7 21 131
32 1 22 23
33 2 23 24
34 8 24 70
35 8 24 115
36 1 25 26
37 11 25 106
38 2 26 27
39 7 27 141
40 7 27 116
41 1 28 29
42 11 28 111
43 11 28 86
44 2 29 30
45 1 31 32
46 2 32 33
47 1 34 35
48 11 34 76
49 2 35 36
50 1 37 38
51 2 38 39
52 8 39 110
53 1 40 41
54 11 40 96
55 11 40 81
56 2 41 42
57 8 42 105
58 7 42 126
59 1 43 44
60 11 43 101
61 2 44 45
62 1 46 47
63 12 46 80
64 2 47 48
65 8 48 130
66 8 48 155
67 1 49 50
68 2 50 51
69 1 52 53
70 2 53 54
71 1 55 56
72 11 55 66
73 11 55 136
74 2 56 57
75 8 57 65
76 8 57 135
77 1 58 59
78 11 58 61
79 11 58 151
80 2 59 60
81 5 61 62
82 4 62 63
83 4 63 64
84 3 64 65
85 5 66 67
86 4 67 68
87 4 68 69
88 3 69 70
89 5 71 72
90 4 72 73
91 4 73 74
92 3 74 75
93 5 76 77
94 4 77 78
95 4 78 79
96 3 79 80
97 5 81 82
98 4 82 83
99 4 83 84
100 3 84 85
101 5 86 87
102 4 87 88
103 4 88 89
104 3 89 90
105 5 91 92
106 4 92 93
107 4 93 94
108 3 94 95
109 5 96 97
110 4 97 98
111 4 98 99
112 3 99 100
113 5 101 102
114 4 102 103
115 4 103 104
116 3 104 105
117 5 106 107
118 4 107 108
119 4 108 109
120 3 109 110
121 5 111 112
122 4 112 113
123 4 113 114
124 3 114 115
125 5 116 117
126 4 117 118
127 4 118 119
128 3 119 120
129 5 121 122
130 4 122 123
131 4 123 124
132 3 124 125
133 5 126 127
134 4 127 128
135 4 128 129
136 3 129 130
137 5 131 132
138 4 132 133
139 4 133 134
140 3 134 135
141 5 136 137
142 4 137 138
143 4 138 139
144 3 139 140
145 5 141 142
146 4 142 143
147 4 143 144
148 3 144 145
149 5 146 147
150 4 147 148
151 4 148 149
152 3 149 150
153 5 151 152
154 4 152 153
155 4 153 154
156 3 154 155
157 5 156 157
158 4 157 158
159 4 158 159
160 3 159 160
