# LAMMPS data file written by Ovito 3.0.0-dev349
160 atoms
160 bonds
6 atom types
12 bond types
-1.422992587 1.422992587 xlo xhi
-1.422992587 1.422992587 ylo yhi
-1.422992587 1.422992587 zlo zhi

Atoms # full

1 1 1 0.0 1.0684813261 -0.2417471856 0.2837913632 0 0 0
2 1 2 0.0 -1.2427526712 -0.395442158 0.1354191899 1 0 0
3 1 3 0.0 -0.8931074739 -0.669747293 -0.1420248151 1 0 0
4 1 1 0.0 -0.8336879015 0.8607865572 -1.0722084045 1 0 1
5 1 2 0.0 -1.1900690794 0.8545307517 1.3772372007 1 0 0
6 1 3 0.0 -1.3178277016 0.816822648 0.9613729715 1 0 0
7 1 1 0.0 -0.2486342043 0.0145398099 0.3532807529 1 -1 0
8 1 2 0.0 -0.3534475267 -0.1977347136 0.7582776546 1 -1 0
9 1 3 0.0 -0.2429619431 -0.2817108631 1.2713246346 1 -1 0
10 1 1 0.0 1.394562006 1.2236244678 -0.3129535913 -1 -1 0
11 1 2 0.0 1.1226322651 -1.3807381392 -0.6054444909 -1 0 0
12 1 3 0.0 1.0223327875 -1.3383071423 -1.0314438343 -1 0 0
13 1 1 0.0 1.3474544287 -0.5749896169 0.5835473537 -1 0 0
14 1 2 0.0 -1.4068781137 -0.1430061311 0.6238375902 0 0 0
15 1 3 0.0 -1.3132222891 0.3045488894 0.4817815721 0 0 0
16 1 1 0.0 -0.7296586037 -0.7878234386 -0.9268814325 -1 0 1
17 1 2 0.0 -0.6292945147 -0.3496772647 -0.9475080967 -1 0 1
18 1 3 0.0 -0.2593911588 -0.0224978421 -0.8429446816 -1 0 1
19 1 1 0.0 0.4953680634 -1.2289373875 -0.4767138958 -1 0 1
20 1 2 0.0 0.729311645 -0.9467181563 -0.7631620169 -1 0 1
21 1 3 0.0 0.6673839688 -0.6065635085 -1.1039865017 -1 0 1
22 1 1 0.0 1.0739994049 0.5502638817 -0.7454460263 0 0 1
23 1 2 0.0 1.1651502848 0.5701708794 -1.1988104582 0 0 1
24 1 3 0.0 1.4184396267 0.3706567585 1.2624833584 0 0 0
25 1 1 0.0 1.1779780388 0.0420589745 -0.6751474738 0 0 1
26 1 2 0.0 1.2640150785 -0.2722836137 -0.2302354425 0 0 1
27 1 3 0.0 1.2243897915 -0.7708386183 0.0652121454 0 0 1
28 1 1 0.0 0.4698498249 -0.8246235251 0.1282714903 0 0 0
29 1 2 0.0 0.4769430757 -0.6532626748 0.5622329116 0 0 0
30 1 3 0.0 0.190496847 -0.413867116 0.9515310526 0 0 0
31 1 1 0.0 -0.8267181516 0.0705717281 0.2600883842 0 1 0
32 1 2 0.0 -1.2288603783 0.2301994413 -0.097219266 0 1 0
33 1 3 0.0 1.1730012894 0.3876211047 -0.1938924342 -1 1 0
34 1 1 0.0 0.5542802811 0.2791512012 1.02906847 0 -1 -1
35 1 2 0.0 0.9298205376 0.1876894385 1.3646657467 0 -1 -1
36 1 3 0.0 1.1362894773 -0.1144295856 -1.1612731218 0 -1 0
37 1 1 0.0 1.1766109467 1.1157568693 -1.3470873833 0 0 1
38 1 2 0.0 1.0527327061 0.8881435394 1.2133110762 0 0 0
39 1 3 0.0 0.7599579096 0.7979174852 0.8815045357 0 0 0
40 1 1 0.0 0.1327609867 -1.0567473173 0.5105143189 0 0 0
41 1 2 0.0 -0.028955929 -1.3037278652 0.4535822272 0 0 0
42 1 3 0.0 -0.0464367718 1.1079877615 0.2895608544 0 -1 0
43 1 1 0.0 0.0849815831 -0.9806890488 -0.8171458244 0 0 0
44 1 2 0.0 -0.3699785471 -1.1323860884 -0.7745371461 0 0 0
45 1 3 0.0 -0.6833526492 1.3880572319 -0.9043031931 0 -1 0
46 1 1 0.0 -0.550335288 -0.787227869 0.3863277435 1 0 0
47 1 2 0.0 -0.8237226605 -0.8687161803 0.7104479074 1 0 0
48 1 3 0.0 -0.9129247069 -0.7311519384 1.1768529415 1 0 0
49 1 1 0.0 1.2293076515 -0.1995581836 1.1747266054 -1 1 0
50 1 2 0.0 -1.176160574 -0.3116615117 1.0301780701 0 1 0
51 1 3 0.0 -0.8422282338 -0.3224521875 0.7097780108 0 1 0
52 1 1 0.0 -0.9284631014 0.2196028233 1.0381461382 0 1 0
53 1 2 0.0 -0.5351240039 0.259798646 0.903794229 0 1 0
54 1 3 0.0 -0.0525315404 0.2490252852 0.9965057373 0 1 0
55 1 1 0.0 1.2040041685 -0.76128304 -0.9911951423 -1 0 1
56 1 2 0.0 1.2372074127 -0.6592523456 -1.3706290722 -1 0 1
57 1 3 0.0 1.2130331993 -0.7148076892 1.1960035563 -1 0 0
58 1 1 0.0 1.4024938345 0.9150303602 -0.8565788269 -1 0 0
59 1 2 0.0 -1.1322188377 1.3033325672 -1.1819703579 0 0 0
60 1 3 0.0 -0.998722136 -1.3855956793 1.1817177534 0 1 -1
61 1 4 0.0 -1.2635689974 0.7695952654 -0.381539166 1 0 0
62 1 2 0.0 -1.1751316786 0.8205268979 0.0333790891 1 0 0
63 1 6 0.0 -1.07703197 1.066955924 0.4273781776 1 0 0
64 1 2 0.0 -1.2076947689 1.378988266 0.6753466129 1 0 0
65 1 5 0.0 -1.3914369345 -1.0487457514 0.9541686177 1 1 0
66 1 4 0.0 0.9086968303 -0.3932206333 -0.6958725452 -1 0 0
67 1 2 0.0 0.7591380477 -0.1377738565 -0.3747071326 -1 0 0
68 1 6 0.0 0.7173147798 0.1116017252 0.0655106232 -1 0 0
69 1 2 0.0 0.7995846272 0.2249349952 0.4404975772 -1 0 0
70 1 5 0.0 1.0993506908 0.2578185201 0.8325974941 -1 0 0
71 1 4 0.0 -0.9066007733 0.6506601572 0.7161307931 0 -1 0
72 1 2 0.0 -0.7121432424 1.0241733789 0.8967484236 0 -1 0
73 1 6 0.0 -0.418361783 -1.4119689465 1.0449248552 0 0 0
74 1 2 0.0 -0.0201327968 -1.019797802 1.0892847776 0 0 0
75 1 5 0.0 0.3123822808 -0.7936738133 1.3700245619 0 0 0
76 1 4 0.0 0.2394985259 0.5896160007 1.4139243364 0 0 -1
77 1 2 0.0 0.0042501078 0.8850957155 -1.0507762432 0 0 0
78 1 6 0.0 -0.2373086214 1.2178627253 -0.6736459732 0 0 0
79 1 2 0.0 -0.3973577619 -1.4055085182 -0.2818391919 0 1 0
80 1 5 0.0 -0.4804225862 -1.1390544176 -0.0328411162 0 1 0
81 1 4 0.0 0.647790432 -1.2035226822 0.4635894597 -1 1 0
82 1 2 0.0 1.0615820885 -1.316554904 0.3517839015 -1 1 0
83 1 6 0.0 1.3676126003 -1.3666366339 0.1372843236 -1 1 0
84 1 2 0.0 -1.015253067 -1.2641483545 -0.1492263079 0 1 0
85 1 5 0.0 -0.7775883675 -1.0457975864 -0.4816661477 0 1 0
86 1 4 0.0 0.3091444373 -1.3711059093 -0.0156825986 0 1 0
87 1 2 0.0 0.2462001443 1.0967247486 -0.2473478019 0 0 0
88 1 6 0.0 0.1957455724 0.7121652961 -0.5661469102 0 0 0
89 1 2 0.0 0.1170366704 0.3963207901 -0.9880572557 0 0 0
90 1 5 0.0 -0.0181037653 0.1078391671 -1.2726066113 0 0 0
91 1 4 0.0 -0.2181776464 0.2579602897 -0.4401655495 0 0 0
92 1 2 0.0 0.0301922485 0.4514434934 -0.1181425825 0 0 0
93 1 6 0.0 0.4392174482 0.5771554708 0.091781944 0 0 0
94 1 2 0.0 0.7842161059 0.7119139433 0.1341337711 0 0 0
95 1 5 0.0 1.1114659309 0.9195559025 0.0076730452 0 0 0
96 1 4 0.0 -0.0758130848 -0.6754440665 0.2461694032 0 0 0
97 1 2 0.0 -0.3075064123 -0.3724906743 0.0361275487 0 0 0
98 1 6 0.0 -0.5582662821 -0.1130556762 -0.2805235386 0 0 0
99 1 2 0.0 -0.7291507721 0.1061173752 -0.5492094159 0 0 0
100 1 5 0.0 -0.8642827272 0.3959626555 -0.7600265145 0 0 0
101 1 4 0.0 0.2541285455 -0.6395897865 -0.4704051316 0 0 0
102 1 2 0.0 0.2748296857 -0.3347203434 -0.1376065165 0 0 0
103 1 6 0.0 0.2666618228 -0.1133463234 0.2436273545 0 0 0
104 1 2 0.0 0.2012999654 0.2503306866 0.4804805815 0 0 0
105 1 5 0.0 0.1195363775 0.7094176412 0.4977532327 0 0 0
106 1 4 0.0 -1.3028054237 0.2333338857 -0.9844175577 0 0 0
107 1 2 0.0 -0.9814125896 0.4143075347 -1.2987903357 0 0 0
108 1 6 0.0 -0.6669133902 0.6211634278 1.2511092424 0 0 -1
109 1 2 0.0 -0.2538146377 0.7976714373 1.0701037645 0 0 -1
110 1 5 0.0 0.2690472901 0.8625867963 0.9931223392 0 0 -1
111 1 4 0.0 0.8197948933 -0.6934547424 -0.2307585627 -1 0 0
112 1 2 0.0 1.206004262 -0.7679969668 -0.4358195364 -1 0 0
113 1 6 0.0 -1.2604558468 -0.5702259541 -0.6747268438 0 0 0
114 1 2 0.0 -1.1559537649 -0.3469578326 -1.0647932291 0 0 0
115 1 5 0.0 -1.183288455 -0.0539542735 -1.3706154823 0 0 0
116 1 4 0.0 -1.1974679232 -0.9787732363 0.2436953485 -1 1 0
117 1 2 0.0 -0.888561368 -1.1872707605 0.3436240554 -1 1 0
118 1 6 0.0 -0.6098139286 1.3111550808 0.4313575327 -1 0 0
119 1 2 0.0 -0.4556101561 0.8983328342 0.4517683387 -1 0 0
120 1 5 0.0 -0.3662810326 0.4976726472 0.4690200984 -1 0 0
121 1 4 0.0 -0.4067388177 -0.5846685171 -0.5184890628 1 0 0
122 1 2 0.0 -0.1357412785 -0.4943470061 -0.90110147 1 0 0
123 1 6 0.0 0.2601788938 -0.3306640089 -1.2807830572 1 0 0
124 1 2 0.0 0.6064957976 -0.2327686548 1.191085577 1 0 -1
125 1 5 0.0 0.8255357742 -0.1798257828 0.8365009427 1 0 -1
126 1 4 0.0 -0.2660337985 0.901373744 -0.2604611516 0 0 0
127 1 2 0.0 -0.3607798815 0.6834959388 -0.6769623756 0 0 0
128 1 6 0.0 -0.4310171604 0.4644072652 -1.0261974335 0 0 0
129 1 2 0.0 -0.5438091159 0.1485799998 -1.2693060637 0 0 0
130 1 5 0.0 -0.7384516597 -0.2747717202 1.3732572794 0 0 -1
131 1 4 0.0 0.6464811563 -0.0685106888 -0.9961948395 0 0 0
132 1 2 0.0 0.6544448137 0.3747298717 -1.0778164864 0 0 0
133 1 6 0.0 0.6618223786 0.8371650577 -1.2843614817 0 0 0
134 1 2 0.0 0.7207570076 1.2861859798 1.3783375025 0 0 -1
135 1 5 0.0 0.8841768503 -1.1146525145 1.2970354557 0 1 -1
136 1 4 0.0 -1.3333362341 -1.1551477909 -0.81455338 1 1 0
137 1 2 0.0 -1.121733427 1.3841841221 -0.6624950767 1 0 0
138 1 6 0.0 -0.8442030549 1.0031971931 -0.4912614822 1 0 0
139 1 2 0.0 -0.685131073 0.6044928432 -0.2716097832 1 0 0
140 1 5 0.0 -0.5468202233 0.3221049607 -0.0417520404 1 0 0
141 1 4 0.0 0.9449121356 -1.1768882275 -0.1498952508 -1 0 0
142 1 2 0.0 0.7495908141 1.1786583662 -0.2320818454 -1 -1 0
143 1 6 0.0 0.7102491856 0.7477557063 -0.3677428663 -1 -1 0
144 1 2 0.0 0.4702596664 0.2843845487 -0.5926761627 -1 -1 0
145 1 5 0.0 0.1931885183 -0.0485225879 -0.6295776963 -1 -1 0
146 1 4 0.0 -0.3810843825 1.039791584 -1.3223141432 0 -1 0
147 1 2 0.0 -0.036042612 1.2185584307 1.2918385267 0 -1 -1
148 1 6 0.0 0.2800779641 -1.4157727957 1.1068210602 0 0 -1
149 1 2 0.0 0.5323656201 -1.0732783079 0.9236236215 0 0 -1
150 1 5 0.0 0.9010201693 -0.7758609056 0.7827665806 0 0 -1
151 1 4 0.0 0.9185538888 1.0490182638 -0.8584379554 0 -1 1
152 1 2 0.0 0.5647867918 1.2271860838 -0.853941977 0 -1 1
153 1 6 0.0 0.2107804567 1.4203504324 -1.0267672539 0 -1 1
154 1 2 0.0 -0.13443093 -1.2799466848 -1.2070394754 0 0 1
155 1 5 0.0 -0.5777186155 -1.0377576351 1.391477108 0 0 0
156 1 4 0.0 -1.1414680481 -0.9521192312 -1.2483372688 1 0 0
157 1 2 0.0 1.3678860664 -1.1901152134 1.4164241552 0 0 -1
158 1 6 0.0 1.1641526222 1.3624602556 1.0419019461 0 -1 -1
159 1 2 0.0 1.1188844442 1.1106778383 0.7277000546 0 -1 -1
160 1 5 0.0 1.2230981588 0.6927680373 0.4780679941 0 -1 -1

Bonds

1 1 1 2
2 12 1 125
3 2 2 3
4 7 3 121
5 1 4 5
6 11 4 146
7 12 4 100
8 2 5 6
9 1 7 8
10 12 7 140
11 12 7 120
12 2 8 9
13 8 9 90
14 1 10 11
15 12 10 95
16 2 11 12
17 1 13 14
18 12 13 150
19 2 14 15
20 8 15 160
21 7 15 71
22 1 16 17
23 12 16 85
24 11 16 156
25 2 17 18
26 8 18 145
27 7 18 91
28 1 19 20
29 2 20 21
30 8 21 75
31 7 21 131
32 1 22 23
33 2 23 24
34 8 24 70
35 8 24 115
36 1 25 26
37 11 25 106
38 2 26 27
39 7 27 141
40 7 27 116
41 1 28 29
42 11 28 111
43 11 28 86
44 2 29 30
45 1 31 32
46 2 32 33
47 1 34 35
48 11 34 76
49 2 35 36
50 1 37 38
51 2 38 39
52 8 39 110
53 1 40 41
54 11 40 96
55 11 40 81
56 2 41 42
57 8 42 105
58 7 42 126
59 1 43 44
60 11 43 101
61 2 44 45
62 1 46 47
63 12 46 80
64 2 47 48
65 8 48 130
66 8 48 155
67 1 49 50
68 2 50 51
69 1 52 53
70 2 53 54
71 1 55 56
72 11 55 66
73 11 55 136
74 2 56 57
75 8 57 65
76 8 57 135
77 1 58 59
78 11 58 61
79 11 58 151
80 2 59 60
81 5 61 62
82 4 62 63
83 4 63 64
84 3 64 65
85 5 66 67
86 4 67 68
87 4 68 69
88 3 69 70
89 5 71 72
90 4 72 73
91 4 73 74
92 3 74 75
93 5 76 77
94 4 77 78
95 4 78 79
96 3 79 80
97 5 81 82
98 4 82 83
99 4 83 84
100 3 84 85
101 5 86 87
102 4 87 88
103 4 88 89
104 3 89 90
105 5 91 92
106 4 92 93
107 4 93 94
108 3 94 95
109 5 96 97
110 4 97 98
111 4 98 99
112 3 99 100
113 5 101 102
114 4 102 103
115 4 103 104
116 3 104 105
117 5 106 107
118 4 107 108
119 4 108 109
120 3 109 110
121 5 111 112
122 4 112 113
123 4 113 114
124 3 114 115
125 5 116 117
126 4 117 118
127 4 118 119
128 3 119 120
129 5 121 122
130 4 122 123
131 4 123 124
132 3 124 125
133 5 126 127
134 4 127 128
135 4 128 129
136 3 129 130
137 5 131 132
138 4 132 133
139 4 133 134
140 3 134 135
141 5 136 137
142 4 137 138
143 4 138 139
144 3 139 140
145 5 141 142
146 4 142 143
147 4 143 144
148 3 144 145
149 5 146 147
150 4 147 148
151 4 148 149
152 3 149 150
153 5 151 152
154 4 152 153
155 4 153 154
156 3 154 155
157 5 156 157
158 4 157 158
159 4 158 159
160 3 159 160
