# LAMMPS data file written by Ovito 3.0.0-dev349
160 atoms
160 bonds
6 atom types
12 bond types
-1.434846163 1.434846163 xlo xhi
-1.434846163 1.434846163 ylo yhi
-1.434846163 1.434846163 zlo zhi

Atoms # full

1 1 1 0.0 0.9779054523 -0.2840225399 0.2546046376 0 0 0
2 1 2 0.0 -1.3334212303 -0.353785038 0.092485711 1 0 0
3 1 3 0.0 -0.8981042504 -0.6845964193 -0.0420977324 1 0 0
4 1 1 0.0 -0.9649137855 0.8058905005 -1.0994400978 1 0 1
5 1 2 0.0 -1.2246857882 0.8006871343 1.4328125715 1 0 0
6 1 3 0.0 -1.3155696392 0.9836943746 0.9732573032 1 0 0
7 1 1 0.0 -0.1962448359 0.2815656066 0.3664437234 1 -1 0
8 1 2 0.0 -0.2282697856 -0.0423020571 0.7286149859 1 -1 0
9 1 3 0.0 -0.0392254069 -0.2339161336 1.1050530672 1 -1 0
10 1 1 0.0 1.384950161 1.2722601891 -0.2601312697 -1 -1 0
11 1 2 0.0 1.1679096222 -1.3877661228 -0.6083771586 -1 0 0
12 1 3 0.0 1.1065248251 -1.3319013119 -1.006626606 -1 0 0
13 1 1 0.0 1.2837367058 -0.6017344594 0.5960104465 -1 0 0
14 1 2 0.0 1.3397072554 -0.1500915736 0.7227227092 -1 0 0
15 1 3 0.0 -1.3616148233 0.2961163223 0.5616706014 0 0 0
16 1 1 0.0 -0.731416285 -0.8252497315 -0.9301445484 -1 0 1
17 1 2 0.0 -0.5754261017 -0.4109654129 -0.9498038888 -1 0 1
18 1 3 0.0 -0.3445679545 -0.0571536496 -0.7601430416 -1 0 1
19 1 1 0.0 0.6279095411 -1.2611061335 -0.5378338695 -1 0 1
20 1 2 0.0 0.7706387639 -0.9603552222 -0.9291089773 -1 0 1
21 1 3 0.0 0.6656594276 -0.6479842663 -1.2728153467 -1 0 1
22 1 1 0.0 1.0902379751 0.5486344099 -1.0158604383 0 0 1
23 1 2 0.0 1.112825036 0.571259737 -1.4105141163 0 0 1
24 1 3 0.0 1.2958841324 0.454906255 1.1308498383 0 0 0
25 1 1 0.0 1.136670351 -0.0342751443 -0.608382225 0 0 1
26 1 2 0.0 1.1279616356 -0.2687523365 -0.2023802847 0 0 1
27 1 3 0.0 1.1594152451 -0.8155855536 0.1342211962 0 0 1
28 1 1 0.0 0.6234260201 -0.7924249768 0.0125001697 0 0 0
29 1 2 0.0 0.5962306261 -0.6636742949 0.4460642636 0 0 0
30 1 3 0.0 0.3437243104 -0.6976155043 0.8140676022 0 0 0
31 1 1 0.0 -0.9623641372 0.2731263936 0.2383879274 0 1 0
32 1 2 0.0 -1.3986614943 0.3018331826 -0.0087479418 0 1 0
33 1 3 0.0 1.0693022013 0.3763887286 0.0082642743 -1 1 0
34 1 1 0.0 0.4597793519 0.611898005 1.1480844021 0 -1 -1
35 1 2 0.0 0.6905738115 0.225309968 1.1919987202 0 -1 -1
36 1 3 0.0 1.1023073196 -0.0650555715 1.2320158482 0 -1 -1
37 1 1 0.0 1.2222441435 1.1562806368 -1.3909852505 0 0 1
38 1 2 0.0 0.8753607869 0.9246901274 1.1505026817 0 0 0
39 1 3 0.0 0.5262981653 1.0052529573 0.8479633331 0 0 0
40 1 1 0.0 0.1610095501 -1.1336386204 0.5331568122 0 0 0
41 1 2 0.0 0.0732919648 1.3375105858 0.4941845238 0 -1 0
42 1 3 0.0 0.2097897232 1.0233079195 0.3197726309 0 -1 0
43 1 1 0.0 0.0770851821 -1.0654189587 -0.5653095245 0 0 0
44 1 2 0.0 -0.3391495347 -1.1248198748 -0.7256681919 0 0 0
45 1 3 0.0 -0.6656087041 -1.4282214642 -0.8952896595 0 0 0
46 1 1 0.0 -0.6080752015 -0.7003573775 0.3983685374 1 0 0
47 1 2 0.0 -0.7394772172 -0.8616098762 0.8211328983 1 0 0
48 1 3 0.0 -0.7131168842 -0.8394923806 1.2603546381 1 0 0
49 1 1 0.0 -1.1815984249 -0.6073384881 1.1388417482 0 1 0
50 1 2 0.0 -1.0839669704 -0.5036271811 0.692604661 0 1 0
51 1 3 0.0 -0.8635185957 -0.2527298331 0.377874285 0 1 0
52 1 1 0.0 -0.9350897074 0.0560540855 0.8048574924 0 1 0
53 1 2 0.0 -0.5506301522 0.1146314293 1.0759371519 0 1 0
54 1 3 0.0 -0.1485308856 0.2977447212 1.1221225262 0 1 0
55 1 1 0.0 1.2415771484 -0.730460465 -1.0458097458 -1 0 1
56 1 2 0.0 1.2842510939 -0.6333403587 -1.4333993196 -1 0 1
57 1 3 0.0 1.1936267614 -0.7344587445 1.0855945349 -1 0 0
58 1 1 0.0 1.4305073023 0.9058962464 -0.883189559 -1 0 0
59 1 2 0.0 -1.1655209064 1.3227907419 -1.163202405 0 0 0
60 1 3 0.0 -0.9196348786 -1.3514699936 1.2376103401 0 1 -1
61 1 4 0.0 -1.3543690443 0.7571734786 -0.3852229416 1 0 0
62 1 2 0.0 -1.265019536 0.8358746171 0.0446514003 1 0 0
63 1 6 0.0 -1.1889864206 1.0290739536 0.3874641955 1 0 0
64 1 2 0.0 -1.1890859604 1.3957573175 0.6372469664 1 0 0
65 1 5 0.0 -1.2855371237 -1.1100405455 0.8256857395 1 1 0
66 1 4 0.0 0.8625212312 -0.4690826833 -0.7390348911 -1 0 0
67 1 2 0.0 0.6394367218 -0.2531417906 -0.4536903501 -1 0 0
68 1 6 0.0 0.576890111 -0.0112945093 -0.059518531 -1 0 0
69 1 2 0.0 0.7093609571 0.173660621 0.3440027237 -1 0 0
70 1 5 0.0 0.9649812579 0.3059402406 0.7279734612 -1 0 0
71 1 4 0.0 -1.0023109913 0.5753984451 0.7894213796 0 -1 0
72 1 2 0.0 -0.775628984 1.0471946001 0.9571665525 0 -1 0
73 1 6 0.0 -0.4450033605 -1.3840857744 0.9914010167 0 0 0
74 1 2 0.0 -0.1301699132 -1.0633671284 1.1466510296 0 0 0
75 1 5 0.0 0.2585420907 -0.8659815192 1.3251936436 0 0 0
76 1 4 0.0 0.096787639 0.8254440427 -1.4065045118 0 0 0
77 1 2 0.0 -0.086913377 1.0059229136 -1.0226490498 0 0 0
78 1 6 0.0 -0.2766466141 1.1537544727 -0.5857656598 0 0 0
79 1 2 0.0 -0.398740232 -1.3945020437 -0.2223266512 0 1 0
80 1 5 0.0 -0.4907307923 -1.0572340488 0.0547537021 0 1 0
81 1 4 0.0 0.6524157524 -1.2115572691 0.4171700478 -1 1 0
82 1 2 0.0 1.0603681803 -1.3419622183 0.3792480826 -1 1 0
83 1 6 0.0 1.4126958847 -1.3435208797 0.1736810058 -1 1 0
84 1 2 0.0 -1.0494997501 -1.2669734955 -0.065309532 0 1 0
85 1 5 0.0 -0.8035918474 -1.0788253546 -0.4376267791 0 1 0
86 1 4 0.0 0.3737264276 -1.2405545712 -0.0922427624 0 1 0
87 1 2 0.0 0.252453804 1.2602256536 -0.2786116898 0 0 0
88 1 6 0.0 0.3140601516 0.841627717 -0.5855307579 0 0 0
89 1 2 0.0 0.2449385375 0.5072040558 -0.9245372415 0 0 0
90 1 5 0.0 0.1269370168 0.1062268838 -1.3419846296 0 0 0
91 1 4 0.0 -0.2089097202 0.1071667075 -0.32242468 0 0 0
92 1 2 0.0 0.0592964813 0.2406579107 -0.0878024846 0 0 0
93 1 6 0.0 0.4060049653 0.5291022658 0.0906090513 0 0 0
94 1 2 0.0 0.7567270994 0.8115968108 0.1892706007 0 0 0
95 1 5 0.0 1.094175458 1.0441532135 0.1165958643 0 0 0
96 1 4 0.0 -0.1245690212 -0.7585952878 0.2996292412 0 0 0
97 1 2 0.0 -0.332793653 -0.3522549868 0.1134464145 0 0 0
98 1 6 0.0 -0.6233323216 -0.1392109394 -0.0972423479 0 0 0
99 1 2 0.0 -0.8460168839 0.1448749006 -0.3389663398 0 0 0
100 1 5 0.0 -0.9396876097 0.4988035858 -0.7211936116 0 0 0
101 1 4 0.0 0.1343832314 -0.6546703577 -0.2552577555 0 0 0
102 1 2 0.0 0.2178112864 -0.3867456019 0.1421463788 0 0 0
103 1 6 0.0 0.3080081642 -0.1379194856 0.5700995326 0 0 0
104 1 2 0.0 0.3143955171 0.2255443484 0.7093630433 0 0 0
105 1 5 0.0 0.3184158802 0.5983433127 0.5920662284 0 0 0
106 1 4 0.0 -1.3374780416 0.1407483071 -0.9190602303 0 0 0
107 1 2 0.0 -1.0169245005 0.3226078153 -1.2066885233 0 0 0
108 1 6 0.0 -0.7028630972 0.5717775226 1.3485454321 0 0 -1
109 1 2 0.0 -0.3175842762 0.7835953832 1.0780198574 0 0 -1
110 1 5 0.0 0.0454121605 0.9056859612 0.9680384994 0 0 -1
111 1 4 0.0 1.0936398506 -0.7897104621 -0.3274962902 -1 0 0
112 1 2 0.0 -1.3885527849 -0.7108556032 -0.5050091147 0 0 0
113 1 6 0.0 -1.1609157324 -0.5280849934 -0.8035120368 0 0 0
114 1 2 0.0 -1.098221302 -0.2711969316 -1.2373358011 0 0 0
115 1 5 0.0 -1.2753185034 0.0473902486 1.2773834467 0 0 -1
116 1 4 0.0 -1.2212911844 -0.896499753 0.3223257661 -1 1 0
117 1 2 0.0 -0.9185584784 -1.1126346588 0.4167957008 -1 1 0
118 1 6 0.0 -0.5801438689 -1.3948295116 0.4841184318 -1 1 0
119 1 2 0.0 -0.3969805837 1.1547744274 0.5851203799 -1 0 0
120 1 5 0.0 -0.2456162274 0.7737663388 0.5477326512 -1 0 0
121 1 4 0.0 -0.4603917003 -0.5505211949 -0.3695688248 1 0 0
122 1 2 0.0 -0.0866131559 -0.4788794219 -0.7473074198 1 0 0
123 1 6 0.0 0.1512571722 -0.3985365927 -1.196115613 1 0 0
124 1 2 0.0 0.5181919932 -0.3657526374 1.1841728687 1 0 -1
125 1 5 0.0 0.8186244965 -0.3619755805 0.7661446929 1 0 -1
126 1 4 0.0 -0.0726443753 0.849603653 -0.1456210315 0 0 0
127 1 2 0.0 -0.2419269532 0.6579319835 -0.564766109 0 0 0
128 1 6 0.0 -0.3021011055 0.4212026 -0.9692656398 0 0 0
129 1 2 0.0 -0.440918386 0.0666167811 -1.2886029482 0 0 0
130 1 5 0.0 -0.5829374194 -0.3675521612 1.3928984404 0 0 -1
131 1 4 0.0 0.7135789394 -0.1198998839 -1.1798324585 0 0 0
132 1 2 0.0 0.6268721819 0.3459310532 -1.179481864 0 0 0
133 1 6 0.0 0.6012861729 0.8451610208 -1.2878221273 0 0 0
134 1 2 0.0 0.7074635029 1.3395254612 1.4130462408 0 0 -1
135 1 5 0.0 0.8613756299 -1.1557842493 1.3195842505 0 1 -1
136 1 4 0.0 -1.3214328289 -1.125330925 -0.8252936602 1 1 0
137 1 2 0.0 -1.1679097414 -1.4246342182 -0.6295611858 1 1 0
138 1 6 0.0 -0.9540516138 1.0981656313 -0.5224922299 1 0 0
139 1 2 0.0 -0.7764707804 0.7177422047 -0.2825839221 1 0 0
140 1 5 0.0 -0.5125619173 0.4301487505 -0.0253917724 1 0 0
141 1 4 0.0 0.954693079 -1.2716503143 -0.1089342758 -1 0 0
142 1 2 0.0 0.8278309703 1.146165967 -0.3114169538 -1 -1 0
143 1 6 0.0 0.8133075237 0.6895043254 -0.4842232466 -1 -1 0
144 1 2 0.0 0.6264970899 0.3145364821 -0.6073509455 -1 -1 0
145 1 5 0.0 0.2203542441 -0.0095575722 -0.7565385699 -1 -1 0
146 1 4 0.0 -0.5148569345 1.0736558437 -1.3260800838 0 -1 0
147 1 2 0.0 -0.1606860906 1.2531465292 1.3459904194 0 -1 -1
148 1 6 0.0 0.2043452859 1.4292252064 1.1183620691 0 -1 -1
149 1 2 0.0 0.5144120455 -1.2011064291 0.9721007943 0 0 -1
150 1 5 0.0 0.8497061133 -0.9446039796 0.7698699236 0 0 -1
151 1 4 0.0 0.9477794766 1.0834366083 -0.8862696886 0 -1 1
152 1 2 0.0 0.5972948074 1.2508656979 -0.9336794019 0 -1 1
153 1 6 0.0 0.332029134 -1.4037619829 -1.0496156216 0 0 1
154 1 2 0.0 -0.0415872559 -1.2536383867 -1.153080225 0 0 1
155 1 5 0.0 -0.4044561386 -1.1282639503 -1.3099324703 0 0 1
156 1 4 0.0 -1.1123783588 -0.9317645431 -1.2737512589 1 0 0
157 1 2 0.0 1.3501704931 -1.2364478111 1.2825430632 0 0 -1
158 1 6 0.0 1.1459653378 1.4032515287 0.9550359845 0 -1 -1
159 1 2 0.0 1.085683465 1.0593668222 0.6285557151 0 -1 -1
160 1 5 0.0 1.2100594044 0.6796928644 0.4363135993 0 -1 -1

Bonds

1 1 1 2
2 12 1 125
3 2 2 3
4 7 3 121
5 1 4 5
6 11 4 146
7 12 4 100
8 2 5 6
9 1 7 8
10 12 7 140
11 12 7 120
12 2 8 9
13 8 9 90
14 1 10 11
15 12 10 95
16 2 11 12
17 1 13 14
18 12 13 150
19 2 14 15
20 8 15 160
21 7 15 71
22 1 16 17
23 12 16 85
24 11 16 156
25 2 17 18
26 8 18 145
27 7 18 91
28 1 19 20
29 2 20 21
30 8 21 75
31 7 21 131
32 1 22 23
33 2 23 24
34 8 24 70
35 8 24 115
36 1 25 26
37 11 25 106
38 2 26 27
39 7 27 141
40 7 27 116
41 1 28 29
42 11 28 111
43 11 28 86
44 2 29 30
45 1 31 32
46 2 32 33
47 1 34 35
48 11 34 76
49 2 35 36
50 1 37 38
51 2 38 39
52 8 39 110
53 1 40 41
54 11 40 96
55 11 40 81
56 2 41 42
57 8 42 105
58 7 42 126
59 1 43 44
60 11 43 101
61 2 44 45
62 1 46 47
63 12 46 80
64 2 47 48
65 8 48 130
66 8 48 155
67 1 49 50
68 2 50 51
69 1 52 53
70 2 53 54
71 1 55 56
72 11 55 66
73 11 55 136
74 2 56 57
75 8 57 65
76 8 57 135
77 1 58 59
78 11 58 61
79 11 58 151
80 2 59 60
81 5 61 62
82 4 62 63
83 4 63 64
84 3 64 65
85 5 66 67
86 4 67 68
87 4 68 69
88 3 69 70
89 5 71 72
90 4 72 73
91 4 73 74
92 3 74 75
93 5 76 77
94 4 77 78
95 4 78 79
96 3 79 80
97 5 81 82
98 4 82 83
99 4 83 84
100 3 84 85
101 5 86 87
102 4 87 88
103 4 88 89
104 3 89 90
105 5 91 92
106 4 92 93
107 4 93 94
108 3 94 95
109 5 96 97
110 4 97 98
111 4 98 99
112 3 99 100
113 5 101 102
114 4 102 103
115 4 103 104
116 3 104 105
117 5 106 107
118 4 107 108
119 4 108 109
120 3 109 110
121 5 111 112
122 4 112 113
123 4 113 114
124 3 114 115
125 5 116 117
126 4 117 118
127 4 118 119
128 3 119 120
129 5 121 122
130 4 122 123
131 4 123 124
132 3 124 125
133 5 126 127
134 4 127 128
135 4 128 129
136 3 129 130
137 5 131 132
138 4 132 133
139 4 133 134
140 3 134 135
141 5 136 137
142 4 137 138
143 4 138 139
144 3 139 140
145 5 141 142
146 4 142 143
147 4 143 144
148 3 144 145
149 5 146 147
150 4 147 148
151 4 148 149
152 3 149 150
153 5 151 152
154 4 152 153
155 4 153 154
156 3 154 155
157 5 156 157
158 4 157 158
159 4 158 159
160 3 159 160
