# LAMMPS data file written by Ovito 3.0.0-dev349
160 atoms
160 bonds
6 atom types
12 bond types
-1.43131268 1.43131268 xlo xhi
-1.43131268 1.43131268 ylo yhi
-1.43131268 1.43131268 zlo zhi

Atoms # full

1 1 1 0.0 1.095097065 -0.1523145884 0.2885107696 0 0 0
2 1 2 0.0 1.4140193462 -0.3498207629 -0.0297383536 0 0 0
3 1 3 0.0 -0.9677287936 -0.6942250133 -0.0537138432 1 0 0
4 1 1 0.0 -0.7845925689 0.9938057661 -1.1803014278 1 0 1
5 1 2 0.0 -1.0400811434 0.9179317355 1.3518192768 1 0 0
6 1 3 0.0 -1.2305551767 0.9694721699 1.006944418 1 0 0
7 1 1 0.0 -0.3417803049 0.0660325363 0.3107623458 1 -1 0
8 1 2 0.0 -0.3657439053 -0.3038915694 0.6517803073 1 -1 0
9 1 3 0.0 -0.3186908662 -0.3952533305 1.0146563053 1 -1 0
10 1 1 0.0 -1.3206567764 1.1888705492 -0.2834810019 0 -1 0
11 1 2 0.0 1.3119469881 -1.4182627201 -0.5380551219 -1 0 0
12 1 3 0.0 1.1296094656 -1.2876821756 -0.9533622861 -1 0 0
13 1 1 0.0 -1.3543286324 -0.5136016607 0.4862537384 0 0 0
14 1 2 0.0 -1.3417732716 -0.0107649695 0.5979896188 0 0 0
15 1 3 0.0 -1.2108238935 0.4510708749 0.5043383837 0 0 0
16 1 1 0.0 -0.7015634775 -0.7551669478 -0.975779593 -1 0 1
17 1 2 0.0 -0.5631461143 -0.3167364001 -0.8774312139 -1 0 1
18 1 3 0.0 -0.1793665737 -0.0595208034 -0.7765979171 -1 0 1
19 1 1 0.0 0.6862549186 -1.2473398447 -0.6221295595 -1 0 1
20 1 2 0.0 0.7113099694 -0.8628229499 -0.90664047 -1 0 1
21 1 3 0.0 0.6599199772 -0.6263157725 -1.3041292429 -1 0 1
22 1 1 0.0 1.079660058 0.5522966385 -0.9284585714 0 0 1
23 1 2 0.0 1.1168539524 0.5429888368 -1.3499844074 0 0 1
24 1 3 0.0 1.3303381205 0.4105537534 1.1363110542 0 0 0
25 1 1 0.0 1.0195090771 0.0166720841 -0.2147179544 0 0 1
26 1 2 0.0 0.9158417583 -0.5207298994 -0.0719070211 0 0 1
27 1 3 0.0 1.0589402914 -0.9418184757 0.1345081627 0 0 1
28 1 1 0.0 0.5911272168 -1.0646947622 -0.113505587 0 0 0
29 1 2 0.0 0.4826409221 -0.8321129084 0.3235334158 0 0 0
30 1 3 0.0 0.188705191 -0.6375323534 0.6526191235 0 0 0
31 1 1 0.0 -0.9652035832 -0.1708821654 0.0222716369 0 1 0
32 1 2 0.0 -1.253750205 0.2199025899 -0.0298567098 0 1 0
33 1 3 0.0 1.2146035433 0.4038012326 0.0724698007 -1 1 0
34 1 1 0.0 0.2252661884 0.4587224126 1.2169569731 0 -1 -1
35 1 2 0.0 0.6654936075 0.2773811221 1.0883004665 0 -1 -1
36 1 3 0.0 1.0765857697 -0.0500857159 1.1144781113 0 -1 -1
37 1 1 0.0 1.16764009 1.057020545 1.4048777819 0 0 0
38 1 2 0.0 0.8359003663 0.9516332746 1.1051267385 0 0 0
39 1 3 0.0 0.365547955 1.068795085 0.8927553296 0 0 0
40 1 1 0.0 0.171122089 -1.1637452841 0.593064785 0 0 0
41 1 2 0.0 -0.0290609952 1.3589897156 0.6422445774 0 -1 0
42 1 3 0.0 0.0583128557 1.0057083368 0.4633497894 0 -1 0
43 1 1 0.0 0.029565962 -1.0999555588 -0.5175001025 0 0 0
44 1 2 0.0 -0.3069581389 -1.1226110458 -0.7410170436 0 0 0
45 1 3 0.0 -0.5701634288 -1.3701255322 -1.0279422998 0 0 0
46 1 1 0.0 -0.7122138143 -0.5709102154 0.4071362615 1 0 0
47 1 2 0.0 -0.7505020499 -0.7178646922 0.797850728 1 0 0
48 1 3 0.0 -0.697645545 -0.6954017282 1.2318290472 1 0 0
49 1 1 0.0 -1.1913940907 -0.4759293795 1.1299581528 0 1 0
50 1 2 0.0 -0.9410421252 -0.2437596321 0.8830120564 0 1 0
51 1 3 0.0 -0.8166733384 0.0156250857 0.5041459203 0 1 0
52 1 1 0.0 -0.9825702906 0.2514947057 1.0348795652 0 1 0
53 1 2 0.0 -0.5590155125 0.1557617038 0.9660305381 0 1 0
54 1 3 0.0 -0.190831244 0.2096753418 0.8747884631 0 1 0
55 1 1 0.0 1.2402350903 -0.6099313498 -0.941748023 -1 0 1
56 1 2 0.0 1.2546141148 -0.5160707831 -1.4028320312 -1 0 1
57 1 3 0.0 1.1240130663 -0.6727432013 1.1296789646 -1 0 0
58 1 1 0.0 -1.4309340715 0.9642159939 -0.9497465491 0 0 0
59 1 2 0.0 -1.2349046469 1.330342412 -1.27633214 0 0 0
60 1 3 0.0 -0.8289868832 -1.4275281429 1.2710001469 0 1 -1
61 1 4 0.0 -1.2771762609 0.7063716054 -0.4163624644 1 0 0
62 1 2 0.0 -1.1952177286 0.7978774309 0.0587510876 1 0 0
63 1 6 0.0 -1.1504718065 1.102309227 0.4274740517 1 0 0
64 1 2 0.0 -1.2294661999 -1.3953918219 0.7337213159 1 1 0
65 1 5 0.0 -1.4071241617 -0.9573316574 0.8828805089 1 1 0
66 1 4 0.0 0.8031224608 -0.4051285088 -0.6904168129 -1 0 0
67 1 2 0.0 0.5237058401 -0.2031902373 -0.3240498006 -1 0 0
68 1 6 0.0 0.5218352675 -0.0013839827 0.0048760334 -1 0 0
69 1 2 0.0 0.7201685309 0.1824773699 0.3812481463 -1 0 0
70 1 5 0.0 1.0411815643 0.2856652737 0.7193351984 -1 0 0
71 1 4 0.0 -0.7900813818 0.6754503846 0.776322186 0 -1 0
72 1 2 0.0 -0.5621911287 1.0922271013 0.9443670511 0 -1 0
73 1 6 0.0 -0.3303982019 -1.3250201941 1.0106422901 0 0 0
74 1 2 0.0 -0.0389321409 -1.0028814077 1.0474228859 0 0 0
75 1 5 0.0 0.268712908 -0.8153387308 1.2733280659 0 0 0
76 1 4 0.0 0.0915553942 0.7771277428 -1.2234225273 0 0 0
77 1 2 0.0 -0.027410103 1.0624086857 -0.8378112912 0 0 0
78 1 6 0.0 -0.1809354275 1.2872612476 -0.4832707644 0 0 0
79 1 2 0.0 -0.3326509595 -1.3114491701 -0.1450021714 0 1 0
80 1 5 0.0 -0.5769018531 -0.9939039946 0.066200465 0 1 0
81 1 4 0.0 0.6886127591 -1.3366467953 0.5059854388 -1 1 0
82 1 2 0.0 1.066182375 1.4191592932 0.3332946301 -1 0 0
83 1 6 0.0 1.4274069071 -1.4257394075 0.1474917084 -1 1 0
84 1 2 0.0 -1.1277449131 -1.2476086617 -0.1687351763 0 1 0
85 1 5 0.0 -0.87042135 -1.0129193068 -0.5821945667 0 1 0
86 1 4 0.0 0.469471693 1.2993509769 -0.2455129772 0 0 0
87 1 2 0.0 0.3679433167 0.9021418095 -0.4324096739 0 0 0
88 1 6 0.0 0.2274098396 0.531319201 -0.7576486468 0 0 0
89 1 2 0.0 0.0792709962 0.2455761731 -1.1906690598 0 0 0
90 1 5 0.0 -0.0747259706 -0.0544557981 1.3281656504 0 0 -1
91 1 4 0.0 -0.1993271708 0.1893068403 -0.3147077858 0 0 0
92 1 2 0.0 0.0422545671 0.3747451901 -0.0026601278 0 0 0
93 1 6 0.0 0.3784781694 0.5846467614 0.1351178735 0 0 0
94 1 2 0.0 0.8704589009 0.7916578054 0.1447247863 0 0 0
95 1 5 0.0 1.2075283527 0.9433579445 0.1026851758 0 0 0
96 1 4 0.0 -0.0834955126 -0.8478660583 0.2911587059 0 0 0
97 1 2 0.0 -0.3640256226 -0.5182034969 0.0228919685 0 0 0
98 1 6 0.0 -0.5188824534 -0.1914196163 -0.266967088 0 0 0
99 1 2 0.0 -0.6955762506 0.1725868136 -0.5048936605 0 0 0
100 1 5 0.0 -0.7660773993 0.5820943117 -0.8357442617 0 0 0
101 1 4 0.0 0.1899224073 -0.7385628819 -0.1514795274 0 0 0
102 1 2 0.0 0.2271385342 -0.4228861928 0.1697647423 0 0 0
103 1 6 0.0 0.2752265334 -0.1295652092 0.4443097115 0 0 0
104 1 2 0.0 0.2681186199 0.1602906138 0.654383719 0 0 0
105 1 5 0.0 0.1663646996 0.5525627136 0.6915650368 0 0 0
106 1 4 0.0 1.353631258 0.2087018341 -0.5902038813 -1 0 0
107 1 2 0.0 -1.2461531162 0.3016972542 -0.9091535211 0 0 0
108 1 6 0.0 -0.8871383667 0.4270657599 -1.3234363794 0 0 0
109 1 2 0.0 -0.5472975373 0.6514050364 1.2354228497 0 0 -1
110 1 5 0.0 -0.1057157367 0.8693487048 1.0364419222 0 0 -1
111 1 4 0.0 1.0555197001 -0.9216160774 -0.3804491162 -1 0 0
112 1 2 0.0 -1.4260002375 -0.679443717 -0.4479699135 0 0 0
113 1 6 0.0 -1.1469342709 -0.4689354897 -0.7833141685 0 0 0
114 1 2 0.0 -1.0725721121 -0.1853372008 -1.1342625618 0 0 0
115 1 5 0.0 -1.2590004206 0.0315969177 1.4202067852 0 0 -1
116 1 4 0.0 -1.3644082546 -0.9722775221 0.3195568621 -1 1 0
117 1 2 0.0 -0.9459931254 -1.0705468655 0.4395499825 -1 1 0
118 1 6 0.0 -0.6468084455 -1.4100080729 0.5124526024 -1 1 0
119 1 2 0.0 -0.4595369697 1.0445915461 0.4300232828 -1 0 0
120 1 5 0.0 -0.3118146658 0.5373557806 0.4504821897 -1 0 0
121 1 4 0.0 -0.5409100652 -0.6744872928 -0.4352970421 1 0 0
122 1 2 0.0 -0.1974118352 -0.6412318945 -0.8584198952 1 0 0
123 1 6 0.0 0.1127522364 -0.5012965798 -1.239235878 1 0 0
124 1 2 0.0 0.427034229 -0.3656674325 1.1343746185 1 0 -1
125 1 5 0.0 0.7279254794 -0.238749668 0.6883178949 1 0 -1
126 1 4 0.0 -0.1210585833 0.8525354266 -0.0408420153 0 0 0
127 1 2 0.0 -0.2237621248 0.6880909801 -0.4060080051 0 0 0
128 1 6 0.0 -0.2973348796 0.4633637369 -0.7410753369 0 0 0
129 1 2 0.0 -0.4653308988 0.1695620716 -1.141836524 0 0 0
130 1 5 0.0 -0.6160715818 -0.2162959874 -1.4271644354 0 0 0
131 1 4 0.0 0.6080802679 -0.1095624194 -1.2652558088 0 0 0
132 1 2 0.0 0.5859875679 0.3517452478 -1.2374205589 0 0 0
133 1 6 0.0 0.6428593397 0.8188372254 -1.285343647 0 0 0
134 1 2 0.0 0.7439552546 1.3443485498 -1.3514001369 0 0 0
135 1 5 0.0 0.8703407049 -1.0678091049 1.3718471527 0 1 -1
136 1 4 0.0 -1.3403429985 -1.0014950037 -0.8424972892 1 1 0
137 1 2 0.0 -1.0561952591 1.3892439604 -0.7463943958 1 0 0
138 1 6 0.0 -0.9082600474 1.002581954 -0.5606855154 1 0 0
139 1 2 0.0 -0.7883259654 0.6195405722 -0.2704331875 1 0 0
140 1 5 0.0 -0.6507233381 0.341825366 -0.0223855563 1 0 0
141 1 4 0.0 0.9878073931 -1.386256814 -0.1349138767 -1 0 0
142 1 2 0.0 0.9207744002 1.0478003025 -0.3488575518 -1 -1 0
143 1 6 0.0 0.8267075419 0.6684619188 -0.5091532469 -1 -1 0
144 1 2 0.0 0.6690051556 0.2807643116 -0.6707052588 -1 -1 0
145 1 5 0.0 0.3529284894 -0.0091579147 -0.8428153396 -1 -1 0
146 1 4 0.0 -0.2798745334 1.1567879915 -1.3752670288 0 -1 0
147 1 2 0.0 0.0556188673 1.2986472845 1.3063405752 0 -1 -1
148 1 6 0.0 0.4291413426 -1.2477506399 1.0572257042 0 0 -1
149 1 2 0.0 0.6734963655 -0.9480445981 0.893220067 0 0 -1
150 1 5 0.0 1.0345611572 -0.6821786165 0.6448034644 0 0 -1
151 1 4 0.0 0.9429607391 1.0721493959 -0.9365941882 0 -1 1
152 1 2 0.0 0.5271669626 1.2589716911 -0.8867775798 0 -1 1
153 1 6 0.0 0.2065536529 1.4226468801 -1.0115697384 0 -1 1
154 1 2 0.0 -0.1182655469 -1.2370434999 -1.2141520977 0 0 1
155 1 5 0.0 -0.3981245458 -1.0211941004 -1.384044528 0 0 1
156 1 4 0.0 -1.0738184452 -0.9147205353 -1.252897501 1 0 0
157 1 2 0.0 -1.4147307873 -1.0603433847 1.3934687376 1 0 -1
158 1 6 0.0 1.210152626 -1.3899242878 1.0843634605 0 0 -1
159 1 2 0.0 1.1685115099 1.1774427891 0.7667652965 0 -1 -1
160 1 5 0.0 1.3004832268 0.8170209527 0.595284164 0 -1 -1

Bonds

1 1 1 2
2 12 1 125
3 2 2 3
4 7 3 121
5 1 4 5
6 11 4 146
7 12 4 100
8 2 5 6
9 1 7 8
10 12 7 140
11 12 7 120
12 2 8 9
13 8 9 90
14 1 10 11
15 12 10 95
16 2 11 12
17 1 13 14
18 12 13 150
19 2 14 15
20 8 15 160
21 7 15 71
22 1 16 17
23 12 16 85
24 11 16 156
25 2 17 18
26 8 18 145
27 7 18 91
28 1 19 20
29 2 20 21
30 8 21 75
31 7 21 131
32 1 22 23
33 2 23 24
34 8 24 70
35 8 24 115
36 1 25 26
37 11 25 106
38 2 26 27
39 7 27 141
40 7 27 116
41 1 28 29
42 11 28 111
43 11 28 86
44 2 29 30
45 1 31 32
46 2 32 33
47 1 34 35
48 11 34 76
49 2 35 36
50 1 37 38
51 2 38 39
52 8 39 110
53 1 40 41
54 11 40 96
55 11 40 81
56 2 41 42
57 8 42 105
58 7 42 126
59 1 43 44
60 11 43 101
61 2 44 45
62 1 46 47
63 12 46 80
64 2 47 48
65 8 48 130
66 8 48 155
67 1 49 50
68 2 50 51
69 1 52 53
70 2 53 54
71 1 55 56
72 11 55 66
73 11 55 136
74 2 56 57
75 8 57 65
76 8 57 135
77 1 58 59
78 11 58 61
79 11 58 151
80 2 59 60
81 5 61 62
82 4 62 63
83 4 63 64
84 3 64 65
85 5 66 67
86 4 67 68
87 4 68 69
88 3 69 70
89 5 71 72
90 4 72 73
91 4 73 74
92 3 74 75
93 5 76 77
94 4 77 78
95 4 78 79
96 3 79 80
97 5 81 82
98 4 82 83
99 4 83 84
100 3 84 85
101 5 86 87
102 4 87 88
103 4 88 89
104 3 89 90
105 5 91 92
106 4 92 93
107 4 93 94
108 3 94 95
109 5 96 97
110 4 97 98
111 4 98 99
112 3 99 100
113 5 101 102
114 4 102 103
115 4 103 104
116 3 104 105
117 5 106 107
118 4 107 108
119 4 108 109
120 3 109 110
121 5 111 112
122 4 112 113
123 4 113 114
124 3 114 115
125 5 116 117
126 4 117 118
127 4 118 119
128 3 119 120
129 5 121 122
130 4 122 123
131 4 123 124
132 3 124 125
133 5 126 127
134 4 127 128
135 4 128 129
136 3 129 130
137 5 131 132
138 4 132 133
139 4 133 134
140 3 134 135
141 5 136 137
142 4 137 138
143 4 138 139
144 3 139 140
145 5 141 142
146 4 142 143
147 4 143 144
148 3 144 145
149 5 146 147
150 4 147 148
151 4 148 149
152 3 149 150
153 5 151 152
154 4 152 153
155 4 153 154
156 3 154 155
157 5 156 157
158 4 157 158
159 4 158 159
160 3 159 160
