# LAMMPS data file written by Ovito 3.0.0-dev349
160 atoms
149 bonds
6 atom types
12 bond types
-1.4440478085 1.4440478085 xlo xhi
-1.4440478085 1.4440478085 ylo yhi
-1.4440478085 1.4440478085 zlo zhi

Atoms # full

1 1 1 0.0 0.4532251954 -0.4479964077 1.049618721 0 0 0
2 1 2 0.0 0.9392595291 -0.460408777 0.885312438 0 0 0
3 1 3 0.0 1.3504792452 -0.6677028537 0.7394542098 0 0 0
4 1 1 0.0 -1.0268496275 0.6732543111 -1.2196013927 1 0 1
5 1 2 0.0 1.3609861135 0.6197901368 -1.2359244823 0 0 1
6 1 3 0.0 0.9045091271 0.5617952347 -0.9870766997 0 0 1
7 1 1 0.0 -0.8799479008 0.1928323358 0.3291166723 1 -1 0
8 1 2 0.0 -0.6715897322 0.515145421 0.6022693515 1 -1 0
9 1 3 0.0 -0.3794850707 0.8189234734 0.62777704 1 -1 0
10 1 1 0.0 1.1294580698 -1.2813019753 -0.5331351161 -1 0 0
11 1 2 0.0 0.8816609383 -1.1515083313 -0.8972477913 -1 0 0
12 1 3 0.0 0.496204555 -1.0403014421 -1.0570130348 -1 0 0
13 1 1 0.0 -1.3051249981 -0.0405558608 0.667365551 0 0 0
14 1 2 0.0 -1.3224872351 0.2968522906 0.5705382824 0 0 0
15 1 3 0.0 -1.2926398516 0.694986999 0.6832512021 0 0 0
16 1 1 0.0 0.0908524022 0.0262317639 0.4834930301 -1 0 0
17 1 2 0.0 0.2382229716 -0.0255570617 0.950974524 -1 0 0
18 1 3 0.0 0.0932971612 0.0505578667 1.388568759 -1 0 0
19 1 1 0.0 0.4165758491 -0.8365032077 -0.475302875 -1 0 1
20 1 2 0.0 0.5066676736 -0.5708093047 -0.8450276256 -1 0 1
21 1 3 0.0 0.5562813878 -0.5676715374 -1.2758257389 -1 0 1
22 1 1 0.0 1.3927313089 0.3747348785 -0.5529865026 0 0 1
23 1 2 0.0 -1.2909655571 0.3425071239 -0.9124475718 1 0 1
24 1 3 0.0 -1.2692570686 0.1844486296 -1.3393753767 1 0 1
25 1 1 0.0 -1.3552932739 0.0207964573 0.1398444325 1 0 1
26 1 2 0.0 1.2785384655 -0.3448803723 0.2806172967 0 0 1
27 1 3 0.0 1.1680054665 -0.8617486954 0.3032466769 0 0 1
28 1 1 0.0 0.3602434993 -0.8159751296 0.4703394175 0 0 0
29 1 2 0.0 0.6136280894 -0.9296073914 0.8010132909 0 0 0
30 1 3 0.0 0.7959070206 -0.8205550909 1.2667633295 0 0 0
31 1 1 0.0 -0.1376926154 -0.3710937798 0.931489706 0 1 0
32 1 2 0.0 0.0977453515 -0.4397208989 0.6642750502 0 1 0
33 1 3 0.0 0.5494328737 -0.3050098717 0.487580508 0 1 0
34 1 1 0.0 0.4873029292 0.9665828943 1.2822937965 0 -1 -1
35 1 2 0.0 0.4993794262 0.5659157038 1.1035461426 0 -1 -1
36 1 3 0.0 0.6100583673 0.3264545202 0.7152789235 0 -1 -1
37 1 1 0.0 0.7718195319 0.9120663404 0.825125277 0 0 0
38 1 2 0.0 0.4166382849 0.8363394737 0.6431927681 0 0 0
39 1 3 0.0 0.0565365031 0.5345806479 0.5112314224 0 0 0
40 1 1 0.0 0.0770006329 -1.2438267469 0.4961594343 0 0 0
41 1 2 0.0 0.444414109 1.3835703135 0.309954077 0 -1 0
42 1 3 0.0 0.5797518492 1.0832910538 0.0780504122 0 -1 0
43 1 1 0.0 -0.4686025083 -1.2229095697 -0.4236967266 0 0 0
44 1 2 0.0 -0.8603615165 -1.2379274368 -0.1731928289 0 0 0
45 1 3 0.0 -1.3505958319 1.4390445948 -0.1403421611 0 -1 0
46 1 1 0.0 -1.0526132584 1.4193564653 1.0647399426 1 -1 0
47 1 2 0.0 -0.816038847 -0.9926051497 1.0203119516 1 0 0
48 1 3 0.0 -0.4811954796 -0.7532278895 1.0616666079 1 0 0
49 1 1 0.0 -0.5194913149 -0.1418969184 0.6299774647 0 1 0
50 1 2 0.0 -0.7035675049 -0.5697687864 0.5981461406 0 1 0
51 1 3 0.0 -0.7109744549 -1.0345563889 0.3868911862 0 1 0
52 1 1 0.0 -0.9569429755 -0.5405671597 1.2762345076 0 1 0
53 1 2 0.0 -0.9735831618 -0.0455653891 1.1042617559 0 1 0
54 1 3 0.0 -0.8307030201 0.4716512263 1.1664913893 0 1 0
55 1 1 0.0 1.1065386534 -0.0048033209 -1.114495635 -1 0 1
56 1 2 0.0 1.1435185671 -0.4678729177 -1.2854918242 -1 0 1
57 1 3 0.0 1.343659997 -0.7850304246 -1.3296641111 -1 0 1
58 1 1 0.0 -1.3511205912 0.9913968444 -0.8907849193 0 0 0
59 1 2 0.0 -0.9311907887 1.1211452484 -0.9824129939 0 0 0
60 1 3 0.0 -0.5626838803 -1.40224576 -0.8960197568 0 1 0
61 1 4 0.0 -1.3906035423 0.8474575877 -0.4121308923 1 0 0
62 1 2 0.0 -1.4362412691 0.9240762591 0.1344535053 1 0 0
63 1 6 0.0 1.3596817255 1.2390254736 0.4808914363 0 0 0
64 1 2 0.0 1.4032466412 -1.3581988811 0.740249157 0 1 0
65 1 5 0.0 1.441414237 -1.0584400892 1.0963801146 0 1 0
66 1 4 0.0 1.09422791 0.0013507864 -0.5515615344 -1 0 0
67 1 2 0.0 1.000120759 -0.0122644193 -0.1091844812 -1 0 0
68 1 6 0.0 0.952377677 0.0659148619 0.3416786194 -1 0 0
69 1 2 0.0 1.077901125 -0.0013955669 0.7368459105 -1 0 0
70 1 5 0.0 1.2614408731 0.030676024 1.1626405716 -1 0 0
71 1 4 0.0 -0.9041749239 1.0052325726 0.6514739394 0 -1 0
72 1 2 0.0 -0.7319353819 1.3590967655 0.6854009628 0 -1 0
73 1 6 0.0 -0.384891212 -1.2035239935 0.7682055235 0 0 0
74 1 2 0.0 0.0273214597 -1.0068832636 1.0070484877 0 0 0
75 1 5 0.0 0.2858215868 -0.8981066942 1.3346214294 0 0 0
76 1 4 0.0 -0.3178257346 0.5518630743 1.3968018293 0 0 -1
77 1 2 0.0 -0.435973227 0.7866501212 -1.1660788059 0 0 0
78 1 6 0.0 -0.4897395968 0.9363230467 -0.6989345551 0 0 0
79 1 2 0.0 -0.410608381 1.1398950815 -0.2030524611 0 0 0
80 1 5 0.0 -0.3213509619 1.361538291 0.2394770533 0 0 0
81 1 4 0.0 1.3929060698 -0.9690710902 -0.1560202688 -1 1 0
82 1 2 0.0 -1.2036038637 -0.8910873532 -0.4523002207 0 1 0
83 1 6 0.0 -0.8822731972 -0.8645021319 -0.6315149665 0 1 0
84 1 2 0.0 -0.4860468209 -0.8910185695 -0.8490572572 0 1 0
85 1 5 0.0 -0.0187215526 -1.0200858116 -0.942465961 0 1 0
86 1 4 0.0 0.1023303196 -1.2773710489 -0.1949095875 0 1 0
87 1 2 0.0 -0.0170178637 1.3922638893 -0.6123343706 0 0 0
88 1 6 0.0 -0.0674139857 1.2253217697 -1.0747414827 0 0 0
89 1 2 0.0 -0.0382103994 1.0164091587 1.42255795 0 0 -1
90 1 5 0.0 -0.0067350673 0.8013356328 1.0475319624 0 0 -1
91 1 4 0.0 0.1958050728 -0.1471056193 -1.03074193 0 0 0
92 1 2 0.0 0.4199169874 -0.0290985554 -0.5937461257 0 0 0
93 1 6 0.0 0.7168069482 0.3162987828 -0.3738408685 0 0 0
94 1 2 0.0 0.9234285951 0.6669938564 -0.2944540381 0 0 0
95 1 5 0.0 1.0430804491 1.1284352541 -0.3604465425 0 0 0
96 1 4 0.0 -0.1254139394 -0.8353084922 0.2256584466 0 0 0
97 1 2 0.0 -0.3418159783 -0.4143258333 0.0642392635 0 0 0
98 1 6 0.0 -0.4818112552 0.001342299 -0.1093662456 0 0 0
99 1 2 0.0 -0.5856414437 0.3083096743 -0.4075141847 0 0 0
100 1 5 0.0 -0.8195927739 0.5387408137 -0.7745539546 0 0 0
101 1 4 0.0 -0.1977298707 -0.7852239013 -0.3698147833 0 0 0
102 1 2 0.0 0.0746839046 -0.4615397155 -0.279599607 0 0 0
103 1 6 0.0 0.3784863949 -0.1936419606 -0.0566494353 0 0 0
104 1 2 0.0 0.4840098619 0.1619238257 0.1428397298 0 0 0
105 1 5 0.0 0.5430160761 0.5678994656 0.1427910775 0 0 0
106 1 4 0.0 -1.1603331566 -0.025699798 -0.307921797 0 0 0
107 1 2 0.0 -0.9919880629 -0.0314024016 -0.7633997202 0 0 0
108 1 6 0.0 -0.7719949484 -0.0219327603 -1.2907139063 0 0 0
109 1 2 0.0 -0.4719112813 0.0639495924 1.1758576632 0 0 -1
110 1 5 0.0 -0.2348845899 0.3249229491 0.8577318788 0 0 -1
111 1 4 0.0 0.591694057 -0.6946620345 0.025314441 -1 0 0
112 1 2 0.0 0.8482254744 -0.6086552739 -0.2733255625 -1 0 0
113 1 6 0.0 1.2061598301 -0.5458091497 -0.567635715 -1 0 0
114 1 2 0.0 -1.3837184906 -0.515699625 -0.8798925281 0 0 0
115 1 5 0.0 -1.2856831551 -0.2244122922 -1.1120910645 0 0 0
116 1 4 0.0 -1.2783792019 -1.206684947 0.3066664338 -1 1 0
117 1 2 0.0 -1.0260835886 1.2482002974 0.2424609661 -1 0 0
118 1 6 0.0 -0.6451078057 0.8776494265 0.1941971779 -1 0 0
119 1 2 0.0 -0.3831701875 0.5470966101 0.1174160242 -1 0 0
120 1 5 0.0 -0.0036446494 0.262195617 0.0375853591 -1 0 0
121 1 4 0.0 -1.2091214657 -0.6306653619 0.3620761037 1 0 0
122 1 2 0.0 -0.8861908317 -0.4592532516 -0.102653645 1 0 0
123 1 6 0.0 -0.5460176468 -0.4413889945 -0.5812049508 1 0 0
124 1 2 0.0 -0.2069188207 -0.4740765989 -0.9929328561 1 0 0
125 1 5 0.0 0.0730926841 -0.4519446194 1.4421583414 1 0 -1
126 1 4 0.0 0.3120335937 1.015373826 -0.3324730694 0 0 0
127 1 2 0.0 0.0644369051 0.7995972633 -0.7035149336 0 0 0
128 1 6 0.0 -0.0845396742 0.4333877563 -0.8814619184 0 0 0
129 1 2 0.0 -0.2691497505 -0.0014763424 -1.1502010822 0 0 0
130 1 5 0.0 -0.41488114 -0.3908557296 1.3966058493 0 0 -1
131 1 4 0.0 0.751726687 -0.1107084304 -1.4394689798 0 0 0
132 1 2 0.0 0.8728276491 0.2775516808 1.3902300596 0 0 -1
133 1 6 0.0 0.9701852202 0.7573488951 1.2948356867 0 0 -1
134 1 2 0.0 1.0171743631 1.1617888212 1.2926291227 0 0 -1
135 1 5 0.0 1.1599918604 -1.2364435196 -1.3962621689 0 1 0
136 1 4 0.0 1.4294760227 -1.0648308992 -0.91738379 0 1 0
137 1 2 0.0 -1.2297326326 -1.3493113518 -0.7101742625 1 1 0
138 1 6 0.0 -0.9420875907 1.1876113415 -0.4643923342 1 0 0
139 1 2 0.0 -0.893742919 0.7922801971 -0.2729309201 1 0 0
140 1 5 0.0 -0.9199612737 0.4728379846 -0.0629379079 1 0 0
141 1 4 0.0 0.8278815746 -1.1354317665 -0.0737386495 -1 0 0
142 1 2 0.0 0.6032885909 -1.3666598797 -0.4150646627 -1 0 0
143 1 6 0.0 0.5177337527 1.214640379 -0.7810365558 -1 -1 0
144 1 2 0.0 0.4337510467 0.8993046284 -1.058339715 -1 -1 0
145 1 5 0.0 0.2271136791 0.5113769174 -1.3507887125 -1 -1 0
146 1 4 0.0 -0.7445521951 0.963684082 1.3470988274 0 -1 -1
147 1 2 0.0 -0.4391150475 1.1176432371 1.0716210604 0 -1 -1
148 1 6 0.0 -0.0057509756 1.3125833273 0.9205572009 0 -1 -1
149 1 2 0.0 0.3851696253 1.4118076563 0.9031772614 0 -1 -1
150 1 5 0.0 0.7937104106 -1.4272848368 0.9112014771 0 0 -1
151 1 4 0.0 1.0189372301 1.1887633801 -1.0955090523 0 -1 1
152 1 2 0.0 0.617718339 1.4152042866 -1.2931351662 0 -1 1
153 1 6 0.0 0.2299533933 -1.3733925819 -1.4117627144 0 0 1
154 1 2 0.0 -0.2189996094 -1.3267829418 1.3670703173 0 0 0
155 1 5 0.0 -0.6478469372 -1.3359088898 1.4139851332 0 0 0
156 1 4 0.0 -0.7916617393 -0.5660352111 -1.0701190233 1 0 0
157 1 2 0.0 -1.0294953585 -0.9919502735 -1.1727221012 1 0 0
158 1 6 0.0 -1.222810626 -1.3804888725 -1.2949136496 1 0 0
159 1 2 0.0 -1.3654792309 1.1858395338 1.4436801672 1 -1 -1
160 1 5 0.0 -1.3642350435 0.8993241191 1.1264334917 1 -1 -1

Bonds

1 1 1 2
2 12 1 125
3 2 2 3
4 7 3 121
5 1 4 5
6 11 4 146
7 12 4 100
8 2 5 6
9 1 7 8
10 12 7 140
11 2 8 9
12 1 10 11
13 12 10 95
14 2 11 12
15 1 13 14
16 2 14 15
17 8 15 160
18 7 15 71
19 1 16 17
20 2 17 18
21 8 18 145
22 7 18 91
23 1 19 20
24 2 20 21
25 8 21 75
26 7 21 131
27 1 22 23
28 2 23 24
29 8 24 70
30 8 24 115
31 1 25 26
32 11 25 106
33 2 26 27
34 7 27 141
35 7 27 116
36 1 28 29
37 11 28 111
38 2 29 30
39 1 31 32
40 2 32 33
41 1 34 35
42 2 35 36
43 1 37 38
44 2 38 39
45 8 39 110
46 1 40 41
47 11 40 96
48 2 41 42
49 8 42 105
50 7 42 126
51 1 43 44
52 11 43 101
53 2 44 45
54 1 46 47
55 2 47 48
56 8 48 130
57 1 49 50
58 2 50 51
59 1 52 53
60 2 53 54
61 1 55 56
62 11 55 66
63 2 56 57
64 8 57 65
65 8 57 135
66 1 58 59
67 11 58 61
68 11 58 151
69 2 59 60
70 5 61 62
71 4 62 63
72 4 63 64
73 3 64 65
74 5 66 67
75 4 67 68
76 4 68 69
77 3 69 70
78 5 71 72
79 4 72 73
80 4 73 74
81 3 74 75
82 5 76 77
83 4 77 78
84 4 78 79
85 3 79 80
86 5 81 82
87 4 82 83
88 4 83 84
89 3 84 85
90 5 86 87
91 4 87 88
92 4 88 89
93 3 89 90
94 5 91 92
95 4 92 93
96 4 93 94
97 3 94 95
98 5 96 97
99 4 97 98
100 4 98 99
101 3 99 100
102 5 101 102
103 4 102 103
104 4 103 104
105 3 104 105
106 5 106 107
107 4 107 108
108 4 108 109
109 3 109 110
110 5 111 112
111 4 112 113
112 4 113 114
113 3 114 115
114 5 116 117
115 4 117 118
116 4 118 119
117 3 119 120
118 5 121 122
119 4 122 123
120 4 123 124
121 3 124 125
122 5 126 127
123 4 127 128
124 4 128 129
125 3 129 130
126 5 131 132
127 4 132 133
128 4 133 134
129 3 134 135
130 5 136 137
131 4 137 138
132 4 138 139
133 3 139 140
134 5 141 142
135 4 142 143
136 4 143 144
137 3 144 145
138 5 146 147
139 4 147 148
140 4 148 149
141 3 149 150
142 5 151 152
143 4 152 153
144 4 153 154
145 3 154 155
146 5 156 157
147 4 157 158
148 4 158 159
149 3 159 160
