# LAMMPS data file written by Ovito 3.0.0-dev349
160 atoms
160 bonds
6 atom types
12 bond types
-1.430848837 1.430848837 xlo xhi
-1.430848837 1.430848837 ylo yhi
-1.430848837 1.430848837 zlo zhi

Atoms # full

1 1 1 0.0 0.9790314436 -0.0991937667 0.2917800546 0 0 0
2 1 2 0.0 -1.3955745697 -0.290656507 0.1168979406 1 0 0
3 1 3 0.0 -0.943089962 -0.7180562615 -0.1203640774 1 0 0
4 1 1 0.0 -0.775444746 0.7139726281 -1.1607323885 1 0 1
5 1 2 0.0 -1.1760663986 0.6707568169 1.3191436529 1 0 0
6 1 3 0.0 1.3748596907 0.9306901693 1.0180840492 0 0 0
7 1 1 0.0 -0.2158517241 0.0842484012 0.3414549232 1 -1 0
8 1 2 0.0 -0.200277701 -0.209535718 0.7534236908 1 -1 0
9 1 3 0.0 -0.0400005057 -0.1789592355 1.1051489115 1 -1 0
10 1 1 0.0 -1.3952361345 1.2354393005 -0.252997905 0 -1 0
11 1 2 0.0 1.1578060389 1.4075052738 -0.6198750138 -1 -1 0
12 1 3 0.0 1.0912626982 -1.3876162767 -1.0213236809 -1 0 0
13 1 1 0.0 1.3442043066 -0.4424412847 0.619299531 -1 0 0
14 1 2 0.0 1.4157184362 -0.0075484496 0.6152437925 -1 0 0
15 1 3 0.0 -1.2471401691 0.4688441157 0.4678740501 0 0 0
16 1 1 0.0 -0.7924118638 -0.7799965739 -0.9925100207 -1 0 1
17 1 2 0.0 -0.5591320992 -0.3364245892 -1.0025093555 -1 0 1
18 1 3 0.0 -0.1931269914 -0.0421067066 -0.8278130889 -1 0 1
19 1 1 0.0 0.6694898605 -1.1969722509 -0.6113855243 -1 0 1
20 1 2 0.0 0.7493451238 -0.9555468559 -0.9620389342 -1 0 1
21 1 3 0.0 0.6222045422 -0.6490046382 -1.3136972189 -1 0 1
22 1 1 0.0 1.0652441978 0.3900209665 -0.8522749543 0 0 1
23 1 2 0.0 1.1463145018 0.5305019617 -1.3523242474 0 0 1
24 1 3 0.0 1.2762027979 0.405385673 1.0723204613 0 0 0
25 1 1 0.0 1.0748494864 -0.0993924141 -0.2777668834 0 0 1
26 1 2 0.0 0.9280987978 -0.4725135565 -0.0672659725 0 0 1
27 1 3 0.0 1.0472857952 -0.8823117614 0.1653479934 0 0 1
28 1 1 0.0 0.6314741373 -0.9724069834 -0.1278359145 0 0 0
29 1 2 0.0 0.5935867429 -0.6882860065 0.3138642907 0 0 0
30 1 3 0.0 0.3542667925 -0.5999403 0.6034848094 0 0 0
31 1 1 0.0 -1.115783453 -0.1552784592 -0.3206976652 0 1 0
32 1 2 0.0 -1.2981808186 0.2234373391 -0.105860211 0 1 0
33 1 3 0.0 1.1530864239 0.5991114378 -0.050002858 -1 1 0
34 1 1 0.0 0.573423624 0.2909609973 1.1373752356 0 -1 -1
35 1 2 0.0 0.9110859036 0.032748498 1.3151302338 0 -1 -1
36 1 3 0.0 1.1198145151 -0.1388962418 -1.1223000288 0 -1 0
37 1 1 0.0 1.1898679733 1.1066231728 -1.3752032518 0 0 1
38 1 2 0.0 0.8851988316 0.9311888814 1.1567355394 0 0 0
39 1 3 0.0 0.4151677787 1.0383332968 1.0058552027 0 0 0
40 1 1 0.0 0.2050391883 -1.0838856697 0.6174783111 0 0 0
41 1 2 0.0 0.0375003107 1.397939086 0.6995761395 0 -1 0
42 1 3 0.0 0.0147737768 1.0305262804 0.5372353792 0 -1 0
43 1 1 0.0 0.0983949229 -1.0109409094 -0.6325407028 0 0 0
44 1 2 0.0 -0.4228114784 -1.0956208706 -0.8406857848 0 0 0
45 1 3 0.0 -0.7239117026 -1.4005111456 -1.1491330862 0 0 0
46 1 1 0.0 -0.7195038795 -0.5607534051 0.3723915517 1 0 0
47 1 2 0.0 -0.6556173563 -0.6692580581 0.8614747524 1 0 0
48 1 3 0.0 -0.5708758831 -0.5207288861 1.2979625463 1 0 0
49 1 1 0.0 -1.2814027071 -0.5474499464 1.0818094015 0 1 0
50 1 2 0.0 -0.984210968 -0.2733555436 0.7690084577 0 1 0
51 1 3 0.0 -0.8980337381 -0.0550614521 0.3543058932 0 1 0
52 1 1 0.0 -1.0529918671 0.2521313429 0.8915837407 0 1 0
53 1 2 0.0 -0.6135261655 0.2048891634 0.7933208942 0 1 0
54 1 3 0.0 -0.1563169807 0.3063162565 0.894281745 0 1 0
55 1 1 0.0 1.2113647461 -0.7613899112 -0.9349607825 -1 0 1
56 1 2 0.0 1.2058984041 -0.654216826 -1.2757817507 -1 0 1
57 1 3 0.0 1.0323730707 -0.7529081702 1.2422252893 -1 0 0
58 1 1 0.0 -1.3109793663 0.728500247 -0.831587255 0 0 0
59 1 2 0.0 -1.1225813627 1.0910749435 -1.1224148273 0 0 0
60 1 3 0.0 -0.9953012466 1.1885221004 1.2661521435 0 0 -1
61 1 4 0.0 -1.210309267 0.7366161346 -0.3077813089 1 0 0
62 1 2 0.0 -1.1679680347 0.8687087297 0.0501616634 1 0 0
63 1 6 0.0 -1.1851032972 1.0805006027 0.4506101608 1 0 0
64 1 2 0.0 -1.2654453516 1.420853138 0.7869631648 1 0 0
65 1 5 0.0 1.3326070309 -1.0086512566 0.9225714207 0 1 0
66 1 4 0.0 0.8065824509 -0.4942716658 -0.6690745354 -1 0 0
67 1 2 0.0 0.5973017216 -0.2492620349 -0.4336925447 -1 0 0
68 1 6 0.0 0.5883097053 0.0291030649 -0.1148709506 -1 0 0
69 1 2 0.0 0.7070747018 0.3181157112 0.2479636967 -1 0 0
70 1 5 0.0 0.9309740663 0.4141624272 0.7105011344 -1 0 0
71 1 4 0.0 -0.8724724054 0.7169978619 0.7314682603 0 -1 0
72 1 2 0.0 -0.6672061682 0.9651501775 0.8976016641 0 -1 0
73 1 6 0.0 -0.4797314405 1.4164583683 1.0097084045 0 -1 0
74 1 2 0.0 -0.152642265 -1.1327821016 1.1092630625 0 0 0
75 1 5 0.0 0.1996628195 -0.9135637879 1.3098164797 0 0 0
76 1 4 0.0 0.2728440464 0.6432946324 -1.398142457 0 0 0
77 1 2 0.0 0.0663634092 0.9516222477 -1.1006472111 0 0 0
78 1 6 0.0 -0.139886722 1.3155244589 -0.7078356743 0 0 0
79 1 2 0.0 -0.3104063869 -1.2565600872 -0.3437416255 0 1 0
80 1 5 0.0 -0.5391898751 -0.9549844861 -0.0101157054 0 1 0
81 1 4 0.0 0.7618018985 -1.18478477 0.5004569888 -1 1 0
82 1 2 0.0 1.2176687717 -1.2615576982 0.4517754316 -1 1 0
83 1 6 0.0 -1.2535966635 -1.3359516859 0.1503918171 0 1 0
84 1 2 0.0 -1.0037336349 -1.2495256662 -0.2191350609 0 1 0
85 1 5 0.0 -0.8452395201 -1.0777180195 -0.5589130521 0 1 0
86 1 4 0.0 0.4412648976 1.3772208691 -0.2192722708 0 0 0
87 1 2 0.0 0.3445927501 1.0131695271 -0.3530763984 0 0 0
88 1 6 0.0 0.2568251491 0.7040100694 -0.6093424559 0 0 0
89 1 2 0.0 0.184080258 0.430205971 -0.9472143054 0 0 0
90 1 5 0.0 0.0696725175 0.1544923931 -1.3767203093 0 0 0
91 1 4 0.0 -0.1413739026 0.2971896231 -0.4477330744 0 0 0
92 1 2 0.0 0.0716700032 0.5537079573 -0.1572977155 0 0 0
93 1 6 0.0 0.4001974761 0.7764575481 0.113706924 0 0 0
94 1 2 0.0 0.7073295116 0.9658334851 0.2564321756 0 0 0
95 1 5 0.0 1.1339861155 1.127423048 0.1490476876 0 0 0
96 1 4 0.0 -0.1097289696 -0.7220253348 0.3407684565 0 0 0
97 1 2 0.0 -0.3215213716 -0.4350958467 0.0814241543 0 0 0
98 1 6 0.0 -0.529955864 -0.1866756231 -0.2132410109 0 0 0
99 1 2 0.0 -0.6723632216 0.0850945935 -0.5052496195 0 0 0
100 1 5 0.0 -0.787137568 0.3432599604 -0.7762948871 0 0 0
101 1 4 0.0 0.1008100063 -0.6871448755 -0.2146396041 0 0 0
102 1 2 0.0 0.1848314553 -0.3979282975 0.0250703935 0 0 0
103 1 6 0.0 0.2610658705 -0.1417348683 0.3957833052 0 0 0
104 1 2 0.0 0.3177376091 0.1753205508 0.6246334314 0 0 0
105 1 5 0.0 0.2336451709 0.6251189709 0.6606524587 0 0 0
106 1 4 0.0 1.3909846544 0.008321329 -0.705856204 -1 0 0
107 1 2 0.0 -1.2244807482 0.1266576201 -1.0817365646 0 0 0
108 1 6 0.0 -0.8543602824 0.2653280497 1.4070427418 0 0 -1
109 1 2 0.0 -0.5250983834 0.5104260445 1.1809960604 0 0 -1
110 1 5 0.0 -0.0673040524 0.8151080608 1.0917395353 0 0 -1
111 1 4 0.0 1.0478243828 -0.8726710677 -0.3682291806 -1 0 0
112 1 2 0.0 1.4027682543 -0.7095637918 -0.4853911996 -1 0 0
113 1 6 0.0 -1.2662725449 -0.4974473119 -0.7927250862 0 0 0
114 1 2 0.0 -1.234011054 -0.3642272651 -1.2069599628 0 0 0
115 1 5 0.0 -1.3630256653 -0.0709838644 1.2875293493 0 0 -1
116 1 4 0.0 -1.2865566015 -0.8311071396 0.3190709352 -1 1 0
117 1 2 0.0 -0.8926305175 -1.080758214 0.3900741637 -1 1 0
118 1 6 0.0 -0.6963050365 1.4157927036 0.4521056414 -1 0 0
119 1 2 0.0 -0.4987963438 1.0294504166 0.4179677367 -1 0 0
120 1 5 0.0 -0.3091928959 0.5896661282 0.4367451072 -1 0 0
121 1 4 0.0 -0.4795924723 -0.6723933816 -0.4941205978 1 0 0
122 1 2 0.0 -0.1733629853 -0.6027906537 -0.9011110663 1 0 0
123 1 6 0.0 0.1129288375 -0.4593036771 -1.3369083405 1 0 0
124 1 2 0.0 0.435913682 -0.3236348331 1.154527545 1 0 -1
125 1 5 0.0 0.7377088666 -0.1714824289 0.7733095884 1 0 -1
126 1 4 0.0 -0.1455115825 0.9887325764 0.0592283495 0 0 0
127 1 2 0.0 -0.3254044056 0.94269979 -0.4184032381 0 0 0
128 1 6 0.0 -0.2947473526 0.7172854543 -0.8357757926 0 0 0
129 1 2 0.0 -0.3230735958 0.4268133938 -1.1843075752 0 0 0
130 1 5 0.0 -0.4261676669 -0.026657572 -1.4171712399 0 0 0
131 1 4 0.0 0.5748492479 -0.1821318418 -1.2296507359 0 0 0
132 1 2 0.0 0.625524044 0.3663562536 -1.1572716236 0 0 0
133 1 6 0.0 0.6743477583 0.8228256702 -1.1691054106 0 0 0
134 1 2 0.0 0.7213861942 1.2537831068 -1.3102468252 0 0 0
135 1 5 0.0 0.8069457412 -1.1962201595 1.4234380722 0 1 -1
136 1 4 0.0 -1.3299722672 -1.1536508799 -0.8096475601 1 1 0
137 1 2 0.0 -1.0648988485 1.3573288918 -0.7080392838 1 0 0
138 1 6 0.0 -0.8702270985 1.0261143446 -0.4969798625 1 0 0
139 1 2 0.0 -0.7160210013 0.6311341524 -0.2828293443 1 0 0
140 1 5 0.0 -0.564640224 0.3251035213 -0.0274861343 1 0 0
141 1 4 0.0 1.0219652653 -1.3092397451 -0.116132915 -1 0 0
142 1 2 0.0 0.9157566428 1.0829213858 -0.2909845412 -1 -1 0
143 1 6 0.0 0.7506833673 0.667847693 -0.4650880694 -1 -1 0
144 1 2 0.0 0.5808787942 0.2847977281 -0.6235718131 -1 -1 0
145 1 5 0.0 0.2792393267 -0.0359905772 -0.815223217 -1 -1 0
146 1 4 0.0 -0.3781945407 1.0317544937 -1.3490043879 0 -1 0
147 1 2 0.0 -0.0290564969 1.2760864496 1.3606802225 0 -1 -1
148 1 6 0.0 0.3170931041 -1.3436034918 1.1224594116 0 0 -1
149 1 2 0.0 0.6221569777 -1.0130442381 0.9649224877 0 0 -1
150 1 5 0.0 0.9187266827 -0.6980067492 0.7474780083 0 0 -1
151 1 4 0.0 1.0694406033 0.9219751954 -0.7924900055 0 -1 1
152 1 2 0.0 0.6663397551 1.1742966175 -0.8033303022 0 -1 1
153 1 6 0.0 0.3399892151 1.4046750069 -0.9550182819 0 -1 1
154 1 2 0.0 0.0430587344 -1.1520677805 -1.1206527948 0 0 1
155 1 5 0.0 -0.289853394 -0.8575986624 -1.2933056355 0 0 1
156 1 4 0.0 -1.1542488337 -0.9865005016 -1.2743245363 1 0 0
157 1 2 0.0 1.3504992723 -1.1547442675 1.40666008 0 0 -1
158 1 6 0.0 1.061938405 -1.3814284801 1.0481616259 0 0 -1
159 1 2 0.0 0.9616863728 1.1770021915 0.7182270288 0 -1 -1
160 1 5 0.0 1.2284961939 0.7828369737 0.4996728897 0 -1 -1

Bonds

1 1 1 2
2 12 1 125
3 2 2 3
4 7 3 121
5 1 4 5
6 11 4 146
7 12 4 100
8 2 5 6
9 1 7 8
10 12 7 140
11 12 7 120
12 2 8 9
13 8 9 90
14 1 10 11
15 12 10 95
16 2 11 12
17 1 13 14
18 12 13 150
19 2 14 15
20 8 15 160
21 7 15 71
22 1 16 17
23 12 16 85
24 11 16 156
25 2 17 18
26 8 18 145
27 7 18 91
28 1 19 20
29 2 20 21
30 8 21 75
31 7 21 131
32 1 22 23
33 2 23 24
34 8 24 70
35 8 24 115
36 1 25 26
37 11 25 106
38 2 26 27
39 7 27 141
40 7 27 116
41 1 28 29
42 11 28 111
43 11 28 86
44 2 29 30
45 1 31 32
46 2 32 33
47 1 34 35
48 11 34 76
49 2 35 36
50 1 37 38
51 2 38 39
52 8 39 110
53 1 40 41
54 11 40 96
55 11 40 81
56 2 41 42
57 8 42 105
58 7 42 126
59 1 43 44
60 11 43 101
61 2 44 45
62 1 46 47
63 12 46 80
64 2 47 48
65 8 48 130
66 8 48 155
67 1 49 50
68 2 50 51
69 1 52 53
70 2 53 54
71 1 55 56
72 11 55 66
73 11 55 136
74 2 56 57
75 8 57 65
76 8 57 135
77 1 58 59
78 11 58 61
79 11 58 151
80 2 59 60
81 5 61 62
82 4 62 63
83 4 63 64
84 3 64 65
85 5 66 67
86 4 67 68
87 4 68 69
88 3 69 70
89 5 71 72
90 4 72 73
91 4 73 74
92 3 74 75
93 5 76 77
94 4 77 78
95 4 78 79
96 3 79 80
97 5 81 82
98 4 82 83
99 4 83 84
100 3 84 85
101 5 86 87
102 4 87 88
103 4 88 89
104 3 89 90
105 5 91 92
106 4 92 93
107 4 93 94
108 3 94 95
109 5 96 97
110 4 97 98
111 4 98 99
112 3 99 100
113 5 101 102
114 4 102 103
115 4 103 104
116 3 104 105
117 5 106 107
118 4 107 108
119 4 108 109
120 3 109 110
121 5 111 112
122 4 112 113
123 4 113 114
124 3 114 115
125 5 116 117
126 4 117 118
127 4 118 119
128 3 119 120
129 5 121 122
130 4 122 123
131 4 123 124
132 3 124 125
133 5 126 127
134 4 127 128
135 4 128 129
136 3 129 130
137 5 131 132
138 4 132 133
139 4 133 134
140 3 134 135
141 5 136 137
142 4 137 138
143 4 138 139
144 3 139 140
145 5 141 142
146 4 142 143
147 4 143 144
148 3 144 145
149 5 146 147
150 4 147 148
151 4 148 149
152 3 149 150
153 5 151 152
154 4 152 153
155 4 153 154
156 3 154 155
157 5 156 157
158 4 157 158
159 4 158 159
160 3 159 160
