# LAMMPS data file written by Ovito 3.0.0-dev349
160 atoms
160 bonds
6 atom types
12 bond types
-1.44198215 1.44198215 xlo xhi
-1.44198215 1.44198215 ylo yhi
-1.44198215 1.44198215 zlo zhi

Atoms # full

1 1 1 0.0 1.1457176208 -0.1913274676 0.2495823056 0 0 0
2 1 2 0.0 -1.2990307808 -0.3413640857 0.0751011223 1 0 0
3 1 3 0.0 -0.9712229967 -0.6942535043 -0.2469499409 1 0 0
4 1 1 0.0 -0.8367667794 0.815474689 -1.2704402208 1 0 1
5 1 2 0.0 -1.1386414766 0.7940058708 1.312425971 1 0 0
6 1 3 0.0 -1.4042992592 1.0229381323 1.0174889565 1 0 0
7 1 1 0.0 -0.1605464965 0.1487838477 0.2384827733 1 -1 0
8 1 2 0.0 -0.1920846403 -0.1873271167 0.6091452241 1 -1 0
9 1 3 0.0 -0.0277483109 -0.3757938147 1.0413544178 1 -1 0
10 1 1 0.0 -1.4268951416 1.2340626717 -0.1973921508 0 -1 0
11 1 2 0.0 1.1453658342 1.3953266144 -0.5481240749 -1 -1 0
12 1 3 0.0 1.078209877 -1.4316446781 -0.9852153659 -1 0 0
13 1 1 0.0 -1.3968046904 -0.4579082727 0.5898180008 0 0 0
14 1 2 0.0 -1.358433485 -0.0243912451 0.6829328537 0 0 0
15 1 3 0.0 -1.3290457726 0.4130328 0.5766621828 0 0 0
16 1 1 0.0 -0.6955925226 -0.8877034783 -0.9967944026 -1 0 1
17 1 2 0.0 -0.5760930181 -0.4090014398 -1.0835088491 -1 0 1
18 1 3 0.0 -0.2763294578 -0.0894489661 -0.9437565804 -1 0 1
19 1 1 0.0 0.6263059378 -1.3218306303 -0.568131268 -1 0 1
20 1 2 0.0 0.708650887 -1.0014144182 -0.8882881403 -1 0 1
21 1 3 0.0 0.636883378 -0.6934085488 -1.3012833595 -1 0 1
22 1 1 0.0 1.0682851076 0.4917118251 -1.0784761906 0 0 1
23 1 2 0.0 1.190980196 0.5450684428 1.4378396273 0 0 0
24 1 3 0.0 1.3702610731 0.394652307 1.0894949436 0 0 0
25 1 1 0.0 1.0835193396 0.0296216942 -0.2495624274 0 0 1
26 1 2 0.0 1.1082615852 -0.5016919971 -0.166763708 0 0 1
27 1 3 0.0 1.0823297501 -0.9054555893 0.2000638247 0 0 1
28 1 1 0.0 0.5185372233 -1.0249515772 -0.0793598592 0 0 0
29 1 2 0.0 0.5188935995 -0.8415674567 0.4723908603 0 0 0
30 1 3 0.0 0.3094447553 -0.7065861821 0.802957952 0 0 0
31 1 1 0.0 -1.0196359158 0.0071261665 -0.2154611796 0 1 0
32 1 2 0.0 -1.2663071156 0.2792626917 0.0617537647 0 1 0
33 1 3 0.0 1.2247736454 0.4267805219 0.2173047811 -1 1 0
34 1 1 0.0 0.3270950913 0.5037983656 1.1832706928 0 -1 -1
35 1 2 0.0 0.7501689792 0.3642287552 1.232195735 0 -1 -1
36 1 3 0.0 1.0374827385 -0.0132936193 1.1601136923 0 -1 -1
37 1 1 0.0 1.1782692671 1.096349597 -1.3862549067 0 0 1
38 1 2 0.0 0.8073840737 0.9224772453 1.1916857958 0 0 0
39 1 3 0.0 0.3607773185 1.0251713991 0.9295376539 0 0 0
40 1 1 0.0 0.2195682228 -1.1686336994 0.6982988119 0 0 0
41 1 2 0.0 0.0912560225 1.3785196543 0.6329444051 0 -1 0
42 1 3 0.0 0.1664105952 1.0419205427 0.3823855519 0 -1 0
43 1 1 0.0 0.1727422327 -0.9910142422 -0.6863830686 0 0 0
44 1 2 0.0 -0.2769328356 -1.1251329184 -0.7600505352 0 0 0
45 1 3 0.0 -0.5640355349 -1.4197002649 -1.0261497498 0 0 0
46 1 1 0.0 -0.8872980475 -0.6177162528 0.2750517726 1 0 0
47 1 2 0.0 -0.7634323239 -0.3407831192 0.7177509665 1 0 0
48 1 3 0.0 -0.6040756702 -0.3244815767 1.1678876877 1 0 0
49 1 1 0.0 -0.9186775684 0.0947965831 0.3876358569 0 1 0
50 1 2 0.0 -0.8118733764 0.6426474452 0.2814959586 0 1 0
51 1 3 0.0 -0.6146581173 0.9749247432 -0.0157309007 0 1 0
52 1 1 0.0 -0.9063999653 0.2227940261 0.940913856 0 1 0
53 1 2 0.0 -0.4648843706 0.120255664 0.9180797935 0 1 0
54 1 3 0.0 -0.0681115612 0.2863727212 0.9007235765 0 1 0
55 1 1 0.0 1.2299377918 -0.7386102676 -0.9436020851 -1 0 1
56 1 2 0.0 1.2764559984 -0.6741965413 -1.3070776463 -1 0 1
57 1 3 0.0 1.1395412683 -0.7912166715 1.2507160902 -1 0 0
58 1 1 0.0 1.2478755713 0.6733450294 -0.6762967706 -1 0 0
59 1 2 0.0 -1.3470455408 0.8382259607 -1.0424900055 0 0 0
60 1 3 0.0 -1.1589537859 1.2210954428 -1.249546051 0 0 0
61 1 4 0.0 1.4015341997 0.7439430356 -0.1733042002 0 0 0
62 1 2 0.0 -1.2783731222 0.8557174206 0.2218569815 1 0 0
63 1 6 0.0 -1.1775032282 1.1013575792 0.5401233435 1 0 0
64 1 2 0.0 -1.1863173246 -1.4316003323 0.7799119949 1 1 0
65 1 5 0.0 -1.414398551 -1.0203835964 0.9347710013 1 1 0
66 1 4 0.0 0.7921380401 -0.5356612802 -0.6442607641 -1 0 0
67 1 2 0.0 0.564041853 -0.3171340823 -0.301286906 -1 0 0
68 1 6 0.0 0.5369842649 -0.0245946292 0.0282291081 -1 0 0
69 1 2 0.0 0.7815122604 0.1424971074 0.3840123415 -1 0 0
70 1 5 0.0 1.0198098421 0.2413707674 0.7276741266 -1 0 0
71 1 4 0.0 -0.9389672279 0.7087415457 0.7619329095 0 -1 0
72 1 2 0.0 -0.711969316 1.0636225939 0.9071961641 0 -1 0
73 1 6 0.0 -0.4582480788 1.436324954 0.9903671145 0 -1 0
74 1 2 0.0 -0.0735649839 -1.1168802977 1.1037815809 0 0 0
75 1 5 0.0 0.2508175969 -0.8787634969 1.3179311752 0 0 0
76 1 4 0.0 0.1182299107 0.8280463815 -1.2930886745 0 0 0
77 1 2 0.0 -0.0233257692 1.0348477364 -0.9124013186 0 0 0
78 1 6 0.0 -0.1447193474 1.299831748 -0.5234033465 0 0 0
79 1 2 0.0 -0.2954024374 -1.2734146118 -0.2479680479 0 1 0
80 1 5 0.0 -0.567951858 -0.9349683523 0.0339088328 0 1 0
81 1 4 0.0 0.8032053709 -1.2857425213 0.519308269 -1 1 0
82 1 2 0.0 1.2607488632 -1.3536610603 0.4876466095 -1 1 0
83 1 6 0.0 -1.2400667667 -1.3782371283 0.2454018295 0 1 0
84 1 2 0.0 -0.9511751533 -1.3194657564 -0.1929333359 0 1 0
85 1 5 0.0 -0.8425684571 -1.1167658567 -0.5773190856 0 1 0
86 1 4 0.0 0.3061304986 1.3318148851 -0.1152259633 0 0 0
87 1 2 0.0 0.3118602037 0.917915225 -0.4097198248 0 0 0
88 1 6 0.0 0.1798438281 0.603562057 -0.7621551752 0 0 0
89 1 2 0.0 0.0756762475 0.3029367626 -1.2429869175 0 0 0
90 1 5 0.0 0.0272026286 -0.0037233548 1.3888568878 0 0 -1
91 1 4 0.0 -0.1712676883 0.1248518229 -0.4716224074 0 0 0
92 1 2 0.0 0.0038303053 0.3398627043 -0.2302771509 0 0 0
93 1 6 0.0 0.3052731752 0.512494266 0.0337388813 0 0 0
94 1 2 0.0 0.7217908502 0.7388359904 0.176348865 0 0 0
95 1 5 0.0 1.1505059004 1.0064179897 0.2052436322 0 0 0
96 1 4 0.0 -0.00645795 -0.7741912007 0.3974655569 0 0 0
97 1 2 0.0 -0.2730776668 -0.4879990518 0.100059256 0 0 0
98 1 6 0.0 -0.4823388457 -0.2470588684 -0.2024163902 0 0 0
99 1 2 0.0 -0.7067738771 0.0666305572 -0.5947649479 0 0 0
100 1 5 0.0 -0.8333104849 0.3964628875 -0.9137650132 0 0 0
101 1 4 0.0 0.1838162988 -0.7013583183 -0.2403274328 0 0 0
102 1 2 0.0 0.3027350605 -0.485549897 0.1535038203 0 0 0
103 1 6 0.0 0.3055946827 -0.2393550575 0.4767580032 0 0 0
104 1 2 0.0 0.3339143097 0.1026483402 0.6577782631 0 0 0
105 1 5 0.0 0.2782360315 0.6139407158 0.6372520328 0 0 0
106 1 4 0.0 1.3305811882 0.1222612932 -0.7250396609 -1 0 0
107 1 2 0.0 -1.2947788239 0.2765484154 -1.1122690439 0 0 0
108 1 6 0.0 -0.9256322384 0.365234673 -1.3917095661 0 0 0
109 1 2 0.0 -0.4916575551 0.620115459 1.2127301693 0 0 -1
110 1 5 0.0 -0.1368987113 0.8127062321 1.0109168291 0 0 -1
111 1 4 0.0 0.9863181114 -0.9259425998 -0.3217532337 -1 0 0
112 1 2 0.0 1.3763979673 -0.8532453775 -0.4915575981 -1 0 0
113 1 6 0.0 -1.1855962276 -0.5677143931 -0.8165364265 0 0 0
114 1 2 0.0 -1.1240303516 -0.2930360734 -1.191916585 0 0 0
115 1 5 0.0 -1.2488347292 0.0233507231 1.3130933046 0 0 -1
116 1 4 0.0 -1.3605349064 -0.9064338207 0.4127294421 -1 1 0
117 1 2 0.0 -0.9329732656 -1.0412218571 0.5088492036 -1 1 0
118 1 6 0.0 -0.6220657229 -1.3631329536 0.547411859 -1 1 0
119 1 2 0.0 -0.3794735074 1.0737076998 0.5020760894 -1 0 0
120 1 5 0.0 -0.2775099277 0.608592391 0.3867405355 -1 0 0
121 1 4 0.0 -0.526779294 -0.6632797718 -0.5335350633 1 0 0
122 1 2 0.0 -0.1635148376 -0.5745412111 -0.8571129441 1 0 0
123 1 6 0.0 0.1778127402 -0.4703364968 -1.2488943338 1 0 0
124 1 2 0.0 0.5021996498 -0.356651485 1.2123278379 1 0 -1
125 1 5 0.0 0.8718736768 -0.3218928874 0.7591606379 1 0 -1
126 1 4 0.0 -0.07516817 0.9057574272 -0.0523804948 0 0 0
127 1 2 0.0 -0.2645953894 0.7819994092 -0.4145074189 0 0 0
128 1 6 0.0 -0.3781203032 0.6958692074 -0.7577738166 0 0 0
129 1 2 0.0 -0.4094641209 0.5422701836 -1.1372213364 0 0 0
130 1 5 0.0 -0.4791658521 0.14362064 -1.411606431 0 0 0
131 1 4 0.0 0.595927 -0.2011778653 -1.212795496 0 0 0
132 1 2 0.0 0.5871448517 0.2583117783 -1.1810343266 0 0 0
133 1 6 0.0 0.6327556372 0.7905545831 -1.2227100134 0 0 0
134 1 2 0.0 0.703400135 1.2761329412 -1.2792754173 0 0 0
135 1 5 0.0 0.882230401 -1.1716524363 -1.4239758253 0 1 0
136 1 4 0.0 -1.3387906551 -1.1467853785 -0.8372985721 1 1 0
137 1 2 0.0 -1.1299694777 1.2516680956 -0.6537225246 1 0 0
138 1 6 0.0 -1.0178858042 0.9294247031 -0.3951734602 1 0 0
139 1 2 0.0 -0.855951786 0.5493172407 -0.2799008489 1 0 0
140 1 5 0.0 -0.5541487336 0.2497894913 -0.0984888896 1 0 0
141 1 4 0.0 0.8925021291 -1.386182189 -0.0451793969 -1 0 0
142 1 2 0.0 0.8938106894 1.0115296841 -0.2416799366 -1 -1 0
143 1 6 0.0 0.7457658648 0.546323061 -0.4179538488 -1 -1 0
144 1 2 0.0 0.5796179175 0.1801017225 -0.6038680077 -1 -1 0
145 1 5 0.0 0.2154868096 -0.1046167985 -0.7779988647 -1 -1 0
146 1 4 0.0 -0.4233455956 1.0880900621 -1.38357687 0 -1 0
147 1 2 0.0 -0.0332571194 1.2926561832 1.3742307425 0 -1 -1
148 1 6 0.0 0.4212361574 -1.3200644255 1.1734485626 0 0 -1
149 1 2 0.0 0.7641431689 -1.0306768417 0.9600176811 0 0 -1
150 1 5 0.0 1.0358153582 -0.7751650214 0.7567287087 0 0 -1
151 1 4 0.0 0.8259393573 0.9882025719 -0.7646782398 0 -1 1
152 1 2 0.0 0.4301429689 1.2227709293 -0.8657434583 0 -1 1
153 1 6 0.0 0.1235828251 -1.3505462408 -1.0329966545 0 0 1
154 1 2 0.0 -0.1462709755 -1.0657862425 -1.2442572117 0 0 1
155 1 5 0.0 -0.3356753886 -0.6950712204 1.3967927694 0 0 0
156 1 4 0.0 -1.1187077761 -1.0114406347 -1.3165403605 1 0 0
157 1 2 0.0 1.4218901396 -1.1980301142 1.3800492287 0 0 -1
158 1 6 0.0 1.1031062603 -1.41056633 1.0374960899 0 0 -1
159 1 2 0.0 1.0422787666 1.1641956568 0.7643787265 0 -1 -1
160 1 5 0.0 1.1846951246 0.7842140198 0.7007852793 0 -1 -1

Bonds

1 1 1 2
2 12 1 125
3 2 2 3
4 7 3 121
5 1 4 5
6 11 4 146
7 12 4 100
8 2 5 6
9 1 7 8
10 12 7 140
11 12 7 120
12 2 8 9
13 8 9 90
14 1 10 11
15 12 10 95
16 2 11 12
17 1 13 14
18 12 13 150
19 2 14 15
20 8 15 160
21 7 15 71
22 1 16 17
23 12 16 85
24 11 16 156
25 2 17 18
26 8 18 145
27 7 18 91
28 1 19 20
29 2 20 21
30 8 21 75
31 7 21 131
32 1 22 23
33 2 23 24
34 8 24 70
35 8 24 115
36 1 25 26
37 11 25 106
38 2 26 27
39 7 27 141
40 7 27 116
41 1 28 29
42 11 28 111
43 11 28 86
44 2 29 30
45 1 31 32
46 2 32 33
47 1 34 35
48 11 34 76
49 2 35 36
50 1 37 38
51 2 38 39
52 8 39 110
53 1 40 41
54 11 40 96
55 11 40 81
56 2 41 42
57 8 42 105
58 7 42 126
59 1 43 44
60 11 43 101
61 2 44 45
62 1 46 47
63 12 46 80
64 2 47 48
65 8 48 130
66 8 48 155
67 1 49 50
68 2 50 51
69 1 52 53
70 2 53 54
71 1 55 56
72 11 55 66
73 11 55 136
74 2 56 57
75 8 57 65
76 8 57 135
77 1 58 59
78 11 58 61
79 11 58 151
80 2 59 60
81 5 61 62
82 4 62 63
83 4 63 64
84 3 64 65
85 5 66 67
86 4 67 68
87 4 68 69
88 3 69 70
89 5 71 72
90 4 72 73
91 4 73 74
92 3 74 75
93 5 76 77
94 4 77 78
95 4 78 79
96 3 79 80
97 5 81 82
98 4 82 83
99 4 83 84
100 3 84 85
101 5 86 87
102 4 87 88
103 4 88 89
104 3 89 90
105 5 91 92
106 4 92 93
107 4 93 94
108 3 94 95
109 5 96 97
110 4 97 98
111 4 98 99
112 3 99 100
113 5 101 102
114 4 102 103
115 4 103 104
116 3 104 105
117 5 106 107
118 4 107 108
119 4 108 109
120 3 109 110
121 5 111 112
122 4 112 113
123 4 113 114
124 3 114 115
125 5 116 117
126 4 117 118
127 4 118 119
128 3 119 120
129 5 121 122
130 4 122 123
131 4 123 124
132 3 124 125
133 5 126 127
134 4 127 128
135 4 128 129
136 3 129 130
137 5 131 132
138 4 132 133
139 4 133 134
140 3 134 135
141 5 136 137
142 4 137 138
143 4 138 139
144 3 139 140
145 5 141 142
146 4 142 143
147 4 143 144
148 3 144 145
149 5 146 147
150 4 147 148
151 4 148 149
152 3 149 150
153 5 151 152
154 4 152 153
155 4 153 154
156 3 154 155
157 5 156 157
158 4 157 158
159 4 158 159
160 3 159 160
