# LAMMPS data file written by Ovito 3.0.0-dev349
160 atoms
160 bonds
6 atom types
12 bond types
-1.4377093315 1.4377093315 xlo xhi
-1.4377093315 1.4377093315 ylo yhi
-1.4377093315 1.4377093315 zlo zhi

Atoms # full

1 1 1 0.0 1.166262269 -0.0958663672 0.3166630268 0 0 0
2 1 2 0.0 -1.3120993376 -0.3388760686 0.1851161718 1 0 0
3 1 3 0.0 -1.0049211979 -0.6970369816 -0.1195286214 1 0 0
4 1 1 0.0 -0.7836366296 0.8558103442 -1.2293305397 1 0 1
5 1 2 0.0 -1.1239005327 0.9363103509 1.2950341702 1 0 0
6 1 3 0.0 -1.38940382 0.7875981331 0.9879116416 1 0 0
7 1 1 0.0 -0.2213291675 0.1579958647 0.2478976548 1 -1 0
8 1 2 0.0 -0.212990433 -0.1667281687 0.5063405633 1 -1 0
9 1 3 0.0 -0.0740506351 -0.2724752128 0.9985144734 1 -1 0
10 1 1 0.0 1.4008184671 1.2493131161 -0.2313544154 -1 -1 0
11 1 2 0.0 1.1677972078 1.426636219 -0.5523625612 -1 -1 0
12 1 3 0.0 1.1649073362 -1.4310882092 -1.0453385115 -1 0 0
13 1 1 0.0 1.355735302 -0.5478297472 0.6332269311 -1 0 0
14 1 2 0.0 -1.3633354902 -0.1290031672 0.7235004306 0 0 0
15 1 3 0.0 -1.2669529915 0.3477239609 0.5409089923 0 0 0
16 1 1 0.0 -0.7478188276 -0.8418453932 -0.9552245736 -1 0 1
17 1 2 0.0 -0.6277067065 -0.4231451154 -0.8996220827 -1 0 1
18 1 3 0.0 -0.2772778273 -0.0748315454 -0.935310781 -1 0 1
19 1 1 0.0 0.6552345157 -1.2882831097 -0.4906558096 -1 0 1
20 1 2 0.0 0.6934831142 -0.874189198 -0.7640994191 -1 0 1
21 1 3 0.0 0.6114116907 -0.6447003484 -1.1885848045 -1 0 1
22 1 1 0.0 1.2122353315 0.5667251348 -1.2070323229 0 0 1
23 1 2 0.0 1.4352507591 0.4513033032 1.3586951494 0 0 0
24 1 3 0.0 -1.413618803 0.2035725564 1.1054084301 1 0 0
25 1 1 0.0 1.0447241068 -0.0645472631 -0.2769882679 0 0 1
26 1 2 0.0 0.9109353423 -0.4938433468 -0.0095573291 0 0 1
27 1 3 0.0 1.050363183 -0.9050264955 0.2332597375 0 0 1
28 1 1 0.0 0.617200315 -1.0701491833 0.0482813045 0 0 0
29 1 2 0.0 0.5450456142 -0.8483929634 0.4211250544 0 0 0
30 1 3 0.0 0.207061246 -0.6345302463 0.7763453722 0 0 0
31 1 1 0.0 -1.0413323641 -0.1881159544 -0.2144571841 0 1 0
32 1 2 0.0 -1.3954566717 0.1712501347 -0.0380069166 0 1 0
33 1 3 0.0 1.0586383343 0.3577940166 0.0794951096 -1 1 0
34 1 1 0.0 0.2974346578 0.5252240896 1.1585339308 0 -1 -1
35 1 2 0.0 0.6794391274 0.3005957007 1.1555655003 0 -1 -1
36 1 3 0.0 0.9968209863 -0.0676570162 1.3122993708 0 -1 -1
37 1 1 0.0 1.2390977144 1.0485373735 -1.4314433336 0 0 1
38 1 2 0.0 0.7853722572 0.9177293181 1.1462715864 0 0 0
39 1 3 0.0 0.3291519582 1.0381199121 0.897770524 0 0 0
40 1 1 0.0 0.1903861761 -1.2212816477 0.6916829944 0 0 0
41 1 2 0.0 0.0543945767 1.3425873518 0.5460469723 0 -1 0
42 1 3 0.0 0.1054852232 1.0060077906 0.3516442478 0 -1 0
43 1 1 0.0 0.1188461632 -1.0391254425 -0.7364006639 0 0 0
44 1 2 0.0 -0.3464536667 -1.1610323191 -0.7839424014 0 0 0
45 1 3 0.0 -0.6838795543 1.3873904943 -0.8312625289 0 -1 0
46 1 1 0.0 -0.6962893605 -0.5364264846 0.2860289514 1 0 0
47 1 2 0.0 -0.5770762563 -0.5452404022 0.7500976324 1 0 0
48 1 3 0.0 -0.6017246246 -0.3911552429 1.2954745293 1 0 0
49 1 1 0.0 -0.7631353736 0.1664210856 0.3720366955 0 1 0
50 1 2 0.0 -0.7862632871 0.6727368236 0.320479095 0 1 0
51 1 3 0.0 -0.8673503399 1.1248720884 0.0985869765 0 1 0
52 1 1 0.0 -0.8975387216 0.0510534197 0.9804396033 0 1 0
53 1 2 0.0 -0.5429416299 0.1596104354 0.8590943217 0 1 0
54 1 3 0.0 -0.1455754489 0.3183476627 0.8845043778 0 1 0
55 1 1 0.0 1.2103259563 -0.5925583839 -0.9579893351 -1 0 1
56 1 2 0.0 1.2945131063 -0.5875114202 -1.4013068676 -1 0 1
57 1 3 0.0 1.1558256149 -0.6856718063 1.1989501715 -1 0 0
58 1 1 0.0 1.2786740065 0.8668695688 -0.7291187644 -1 0 0
59 1 2 0.0 -1.2503106594 1.0153594017 -1.0491964817 0 0 0
60 1 3 0.0 -1.0110883713 1.3672955036 -1.3304253817 0 0 0
61 1 4 0.0 1.424290061 0.6874954104 -0.2817543745 0 0 0
62 1 2 0.0 -1.2869269848 0.7734298706 0.1212360412 1 0 0
63 1 6 0.0 -1.1925994158 1.0550211668 0.5106903315 1 0 0
64 1 2 0.0 -1.1929632425 -1.421594739 0.7640683055 1 1 0
65 1 5 0.0 -1.4320650101 -1.027125597 0.9005104303 1 1 0
66 1 4 0.0 0.7741629481 -0.3502354324 -0.7008318901 -1 0 0
67 1 2 0.0 0.5772539377 -0.2629325092 -0.3834369183 -1 0 0
68 1 6 0.0 0.6290162206 -0.0317849666 0.0252740495 -1 0 0
69 1 2 0.0 0.7676153183 0.1770544648 0.4493820071 -1 0 0
70 1 5 0.0 1.0489239693 0.2251930833 0.7935689688 -1 0 0
71 1 4 0.0 -0.9146621227 0.613250494 0.8076174855 0 -1 0
72 1 2 0.0 -0.6680489779 0.9361586571 0.9166761637 0 -1 0
73 1 6 0.0 -0.4150313139 1.3466883898 1.0014072657 0 -1 0
74 1 2 0.0 -0.148065269 -1.1307362318 1.1138386726 0 0 0
75 1 5 0.0 0.1944720894 -0.8216149807 1.3061666489 0 0 0
76 1 4 0.0 0.1438852698 0.808178544 -1.3211326599 0 0 0
77 1 2 0.0 -0.0119352005 1.0166548491 -0.9791109562 0 0 0
78 1 6 0.0 -0.1388058364 1.2504882812 -0.6129610538 0 0 0
79 1 2 0.0 -0.2891187966 -1.265175581 -0.2271853685 0 1 0
80 1 5 0.0 -0.4856980741 -0.9886766672 -0.0179907195 0 1 0
81 1 4 0.0 0.7095490098 -1.3101950884 0.5885439515 -1 1 0
82 1 2 0.0 1.1906148195 -1.3994656801 0.4633803666 -1 1 0
83 1 6 0.0 -1.2870708704 1.4077615738 0.2188632488 0 0 0
84 1 2 0.0 -1.0357452631 -1.2662141323 -0.1082126498 0 1 0
85 1 5 0.0 -0.8309878707 -1.0732657909 -0.4818106592 0 1 0
86 1 4 0.0 0.3709940314 1.3203361034 -0.1189673617 0 0 0
87 1 2 0.0 0.2956422865 0.9540092945 -0.4059720039 0 0 0
88 1 6 0.0 0.2380871028 0.5771101117 -0.7497166395 0 0 0
89 1 2 0.0 0.1554683447 0.305146873 -1.164653182 0 0 0
90 1 5 0.0 0.1102244183 0.0422385819 1.32417202 0 0 -1
91 1 4 0.0 -0.2288519889 0.2336543649 -0.5138084292 0 0 0
92 1 2 0.0 0.0189397652 0.3989681304 -0.2245280892 0 0 0
93 1 6 0.0 0.4398468435 0.590157032 0.1119153425 0 0 0
94 1 2 0.0 0.7875600457 0.7701528072 0.2310694158 0 0 0
95 1 5 0.0 1.1612936258 0.9831480384 0.1533038467 0 0 0
96 1 4 0.0 -0.0268839933 -0.8268412352 0.3373131752 0 0 0
97 1 2 0.0 -0.2350451797 -0.4910461307 0.0750835091 0 0 0
98 1 6 0.0 -0.4066375196 -0.1820102632 -0.2286926955 0 0 0
99 1 2 0.0 -0.7253254652 0.1717739552 -0.5763168335 0 0 0
100 1 5 0.0 -0.8588168025 0.4836494327 -0.8872400522 0 0 0
101 1 4 0.0 0.2809245884 -0.8249251842 -0.3180405498 0 0 0
102 1 2 0.0 0.3303331435 -0.5548745394 0.063242279 0 0 0
103 1 6 0.0 0.2473911792 -0.2750259042 0.4198134542 0 0 0
104 1 2 0.0 0.2646420598 0.0755811557 0.6548181176 0 0 0
105 1 5 0.0 0.2177142352 0.5203716159 0.6456748843 0 0 0
106 1 4 0.0 1.3190526962 -0.0300250798 -0.7247951031 -1 0 0
107 1 2 0.0 -1.2603406906 0.0895325318 -1.1146986485 0 0 0
108 1 6 0.0 -0.9508798122 0.3068598211 -1.4004092216 0 0 0
109 1 2 0.0 -0.5583105683 0.5642763376 1.2437987328 0 0 -1
110 1 5 0.0 -0.1079178378 0.8476315737 1.0267313719 0 0 -1
111 1 4 0.0 1.0162869692 -0.9255008698 -0.2998594344 -1 0 0
112 1 2 0.0 1.4148322344 -0.6910075545 -0.4624148607 -1 0 0
113 1 6 0.0 -1.1448887587 -0.5828401446 -0.7764732242 0 0 0
114 1 2 0.0 -1.107660532 -0.4050247371 -1.1969974041 0 0 0
115 1 5 0.0 -1.198841691 -0.1758646965 1.3275578022 0 0 -1
116 1 4 0.0 -1.3434462547 -0.9199931622 0.3388069868 -1 1 0
117 1 2 0.0 -0.9507068992 -1.0603518486 0.4298556447 -1 1 0
118 1 6 0.0 -0.672994256 -1.3897690773 0.4409556687 -1 1 0
119 1 2 0.0 -0.4457844198 1.0814630985 0.4574458003 -1 0 0
120 1 5 0.0 -0.2606523931 0.616528213 0.4564826787 -1 0 0
121 1 4 0.0 -0.5203186274 -0.6496554613 -0.4743352234 1 0 0
122 1 2 0.0 -0.1055777222 -0.5387995243 -0.8032441735 1 0 0
123 1 6 0.0 0.1538471133 -0.4107074142 -1.2779997587 1 0 0
124 1 2 0.0 0.49427706 -0.3953715861 1.2561761141 1 0 -1
125 1 5 0.0 0.8315014839 -0.2659510672 0.8156132102 1 0 -1
126 1 4 0.0 -0.1953874081 0.943494916 -0.0374241993 0 0 0
127 1 2 0.0 -0.3777248561 0.8670948148 -0.3818488419 0 0 0
128 1 6 0.0 -0.4429435432 0.7662717104 -0.7268541455 0 0 0
129 1 2 0.0 -0.4069268405 0.4402061701 -1.1178435087 0 0 0
130 1 5 0.0 -0.3895919323 0.0540359467 -1.3835490942 0 0 0
131 1 4 0.0 0.6582013369 -0.1010748595 -1.1847469807 0 0 0
132 1 2 0.0 0.6821861863 0.3618026674 -1.1723963022 0 0 0
133 1 6 0.0 0.6638028026 0.8128412962 -1.2135320902 0 0 0
134 1 2 0.0 0.7264071107 1.2788726091 -1.3392020464 0 0 0
135 1 5 0.0 0.8344157338 -1.0935007334 1.4185987711 0 1 -1
136 1 4 0.0 1.4184896946 -1.0294815302 -0.8114475012 0 1 0
137 1 2 0.0 -1.1828855276 1.4126908779 -0.6473402977 1 0 0
138 1 6 0.0 -0.9997957349 1.0338859558 -0.4824741185 1 0 0
139 1 2 0.0 -0.8821849823 0.6564442515 -0.2994123101 1 0 0
140 1 5 0.0 -0.60288167 0.316334039 -0.071650371 1 0 0
141 1 4 0.0 0.9769550562 -1.4256632328 -0.0073219701 -1 0 0
142 1 2 0.0 0.8481677175 0.9866046906 -0.227327615 -1 -1 0
143 1 6 0.0 0.8114816546 0.5846280456 -0.425730437 -1 -1 0
144 1 2 0.0 0.6347067356 0.1934254766 -0.6222172976 -1 -1 0
145 1 5 0.0 0.2613666654 -0.0975386724 -0.8097865582 -1 -1 0
146 1 4 0.0 -0.3112973273 1.0995856524 -1.367931366 0 -1 0
147 1 2 0.0 0.057809893 1.2553278208 1.3259519339 0 -1 -1
148 1 6 0.0 0.3392299116 -1.3088127375 1.1789364815 0 0 -1
149 1 2 0.0 0.5858399868 -0.9956716299 0.9777413607 0 0 -1
150 1 5 0.0 0.9071938992 -0.7864917517 0.7783666253 0 0 -1
151 1 4 0.0 0.8010565639 1.0300433636 -0.7750428915 0 -1 1
152 1 2 0.0 0.4959951341 1.2680565119 -0.9115079045 0 -1 1
153 1 6 0.0 0.1871884763 -1.3480119705 -1.0942914486 0 0 1
154 1 2 0.0 -0.088393949 -1.0587594509 -1.2231472731 0 0 1
155 1 5 0.0 -0.3626617193 -0.7245114446 -1.3220925331 0 0 1
156 1 4 0.0 -1.1060385704 -0.9120314717 -1.2821229696 1 0 0
157 1 2 0.0 1.3932334185 -1.1439787149 1.4043968916 0 0 -1
158 1 6 0.0 1.1336187124 1.400200367 1.0714222193 0 -1 -1
159 1 2 0.0 1.0707591772 1.0285100937 0.7377768159 0 -1 -1
160 1 5 0.0 1.2276141644 0.6723698378 0.5820035338 0 -1 -1

Bonds

1 1 1 2
2 12 1 125
3 2 2 3
4 7 3 121
5 1 4 5
6 11 4 146
7 12 4 100
8 2 5 6
9 1 7 8
10 12 7 140
11 12 7 120
12 2 8 9
13 8 9 90
14 1 10 11
15 12 10 95
16 2 11 12
17 1 13 14
18 12 13 150
19 2 14 15
20 8 15 160
21 7 15 71
22 1 16 17
23 12 16 85
24 11 16 156
25 2 17 18
26 8 18 145
27 7 18 91
28 1 19 20
29 2 20 21
30 8 21 75
31 7 21 131
32 1 22 23
33 2 23 24
34 8 24 70
35 8 24 115
36 1 25 26
37 11 25 106
38 2 26 27
39 7 27 141
40 7 27 116
41 1 28 29
42 11 28 111
43 11 28 86
44 2 29 30
45 1 31 32
46 2 32 33
47 1 34 35
48 11 34 76
49 2 35 36
50 1 37 38
51 2 38 39
52 8 39 110
53 1 40 41
54 11 40 96
55 11 40 81
56 2 41 42
57 8 42 105
58 7 42 126
59 1 43 44
60 11 43 101
61 2 44 45
62 1 46 47
63 12 46 80
64 2 47 48
65 8 48 130
66 8 48 155
67 1 49 50
68 2 50 51
69 1 52 53
70 2 53 54
71 1 55 56
72 11 55 66
73 11 55 136
74 2 56 57
75 8 57 65
76 8 57 135
77 1 58 59
78 11 58 61
79 11 58 151
80 2 59 60
81 5 61 62
82 4 62 63
83 4 63 64
84 3 64 65
85 5 66 67
86 4 67 68
87 4 68 69
88 3 69 70
89 5 71 72
90 4 72 73
91 4 73 74
92 3 74 75
93 5 76 77
94 4 77 78
95 4 78 79
96 3 79 80
97 5 81 82
98 4 82 83
99 4 83 84
100 3 84 85
101 5 86 87
102 4 87 88
103 4 88 89
104 3 89 90
105 5 91 92
106 4 92 93
107 4 93 94
108 3 94 95
109 5 96 97
110 4 97 98
111 4 98 99
112 3 99 100
113 5 101 102
114 4 102 103
115 4 103 104
116 3 104 105
117 5 106 107
118 4 107 108
119 4 108 109
120 3 109 110
121 5 111 112
122 4 112 113
123 4 113 114
124 3 114 115
125 5 116 117
126 4 117 118
127 4 118 119
128 3 119 120
129 5 121 122
130 4 122 123
131 4 123 124
132 3 124 125
133 5 126 127
134 4 127 128
135 4 128 129
136 3 129 130
137 5 131 132
138 4 132 133
139 4 133 134
140 3 134 135
141 5 136 137
142 4 137 138
143 4 138 139
144 3 139 140
145 5 141 142
146 4 142 143
147 4 143 144
148 3 144 145
149 5 146 147
150 4 147 148
151 4 148 149
152 3 149 150
153 5 151 152
154 4 152 153
155 4 153 154
156 3 154 155
157 5 156 157
158 4 157 158
159 4 158 159
160 3 159 160
