# LAMMPS data file written by Ovito 3.0.0-dev349
160 atoms
160 bonds
6 atom types
12 bond types
-1.436266899 1.436266899 xlo xhi
-1.436266899 1.436266899 ylo yhi
-1.436266899 1.436266899 zlo zhi

Atoms # full

1 1 1 0.0 1.0444723368 -0.2520568073 0.4231861532 0 0 0
2 1 2 0.0 -1.3663579226 -0.36909163 0.1190644503 1 0 0
3 1 3 0.0 -0.9038867354 -0.7116740346 -0.0215897821 1 0 0
4 1 1 0.0 -0.7352563143 0.9316130877 -1.1470017433 1 0 1
5 1 2 0.0 -0.9554406404 0.9556449652 1.3131130934 1 0 0
6 1 3 0.0 -1.2518545389 0.8643216491 1.0664308071 1 0 0
7 1 1 0.0 -0.1251987666 0.1541297585 0.2603096664 1 -1 0
8 1 2 0.0 -0.2747369409 -0.2149712741 0.5648884177 1 -1 0
9 1 3 0.0 -0.1345811486 -0.4588945508 0.8637952805 1 -1 0
10 1 1 0.0 1.4148112535 1.173630476 -0.1832007021 -1 -1 0
11 1 2 0.0 1.1630690098 1.421438098 -0.5146069527 -1 -1 0
12 1 3 0.0 1.0119656324 -1.3190828562 -1.0399404764 -1 0 0
13 1 1 0.0 -1.3790175915 -0.4133259952 0.6992676854 0 0 0
14 1 2 0.0 -1.4045625925 -0.0053701885 0.5594196916 0 0 0
15 1 3 0.0 -1.3127913475 0.3932654262 0.5893481374 0 0 0
16 1 1 0.0 -0.7397661805 -0.8083410859 -0.8716343045 -1 0 1
17 1 2 0.0 -0.5892298818 -0.3268502951 -0.9515743256 -1 0 1
18 1 3 0.0 -0.2528392673 -0.0724540278 -0.9615888596 -1 0 1
19 1 1 0.0 0.4972254932 -1.2936166525 -0.629414916 -1 0 1
20 1 2 0.0 0.5200634003 -0.857927084 -0.86289078 -1 0 1
21 1 3 0.0 0.5974111557 -0.7122389078 -1.1668015718 -1 0 1
22 1 1 0.0 1.1452773809 1.0532512665 -1.3635082245 0 0 1
23 1 2 0.0 1.2383646965 0.5834928751 1.4025058746 0 0 0
24 1 3 0.0 1.3938964605 0.3058319688 1.083876133 0 0 0
25 1 1 0.0 1.1434634924 -0.1163427085 -0.2395576239 0 0 1
26 1 2 0.0 0.9548034668 -0.5660654902 0.0060636229 0 0 1
27 1 3 0.0 1.0543681383 -0.9333138466 0.2243759632 0 0 1
28 1 1 0.0 0.6089655161 -1.0976116657 -0.0290381946 0 0 0
29 1 2 0.0 0.5468119979 -0.7981229424 0.4326491952 0 0 0
30 1 3 0.0 0.3192008436 -0.7019908428 0.8414400816 0 0 0
31 1 1 0.0 -0.9556847811 -0.1027415097 0.0335232913 0 1 0
32 1 2 0.0 -1.2658563852 0.2078854889 0.0784520283 0 1 0
33 1 3 0.0 1.1603649855 0.3581593931 0.0049052504 -1 1 0
34 1 1 0.0 0.1909550577 0.4834586978 1.1168023348 0 -1 -1
35 1 2 0.0 0.6396696568 0.1880427003 1.0571223497 0 -1 -1
36 1 3 0.0 1.0095760822 -0.0691903681 1.2285511494 0 -1 -1
37 1 1 0.0 0.801708281 0.659427762 0.9791694283 0 0 0
38 1 2 0.0 0.4366179109 1.0148739815 0.9802875519 0 0 0
39 1 3 0.0 -2.404583e-04 1.0747172832 0.876594007 0 0 0
40 1 1 0.0 0.262393415 -1.2268263102 0.5541843772 0 0 0
41 1 2 0.0 0.1268990785 1.392919898 0.5145273209 0 -1 0
42 1 3 0.0 0.1815538108 1.0842130184 0.3299781382 0 -1 0
43 1 1 0.0 0.156672582 -0.9492965341 -0.5359609127 0 0 0
44 1 2 0.0 -0.2654495537 -1.119628787 -0.5904307961 0 0 0
45 1 3 0.0 -0.5819939375 1.3362308741 -0.755900681 0 -1 0
46 1 1 0.0 -0.6436895132 -0.5784239769 0.399966985 1 0 0
47 1 2 0.0 -0.8292585611 -0.4867140651 0.8287420869 1 0 0
48 1 3 0.0 -0.7673458457 -0.4598358274 1.2564504147 1 0 0
49 1 1 0.0 -0.6298326254 0.2048223615 0.3866095245 0 1 0
50 1 2 0.0 -0.7178566456 0.7195399404 0.2897227705 0 1 0
51 1 3 0.0 -0.5904513597 1.082855463 -0.0138501721 0 1 0
52 1 1 0.0 -0.9785431027 0.0743130445 0.8958107233 0 1 0
53 1 2 0.0 -0.5248293877 0.0813921168 0.9686326385 0 1 0
54 1 3 0.0 -0.1409249157 0.2215955257 0.8524371386 0 1 0
55 1 1 0.0 1.0815863609 -0.8143807054 -0.925162673 -1 0 1
56 1 2 0.0 1.1098335981 -0.6960027218 -1.3168722391 -1 0 1
57 1 3 0.0 1.0537821054 -0.7967149615 1.2242372036 -1 0 0
58 1 1 0.0 1.3190307617 0.7447025776 -0.7268103361 -1 0 0
59 1 2 0.0 -1.2551244497 0.9878669977 -1.0802167654 0 0 0
60 1 3 0.0 -0.9551969171 1.388943553 -1.2577654123 0 0 0
61 1 4 0.0 -1.3873883486 0.6798859835 -0.248623997 1 0 0
62 1 2 0.0 -1.2275627851 0.8163621426 0.1259586513 1 0 0
63 1 6 0.0 -1.1235125065 1.0540208817 0.4795154035 1 0 0
64 1 2 0.0 -1.1956552267 -1.4154007435 0.7758771181 1 1 0
65 1 5 0.0 -1.42567873 -1.04073596 0.9786555767 1 1 0
66 1 4 0.0 0.8529794216 -0.4959039688 -0.5619872212 -1 0 0
67 1 2 0.0 0.5784178376 -0.1755548418 -0.2936100662 -1 0 0
68 1 6 0.0 0.6136414409 0.0493892208 0.0437773317 -1 0 0
69 1 2 0.0 0.8194705844 0.221696049 0.444042623 -1 0 0
70 1 5 0.0 1.0521664619 0.2820077837 0.7248257399 -1 0 0
71 1 4 0.0 -0.8951038718 0.6407440305 0.7802963853 0 -1 0
72 1 2 0.0 -0.6648176312 1.1049419641 0.8913928866 0 -1 0
73 1 6 0.0 -0.3801263571 -1.3724508286 1.0180327892 0 0 0
74 1 2 0.0 -0.059186507 -1.0767858028 1.1781387329 0 0 0
75 1 5 0.0 0.2451265603 -0.9353984594 1.370151639 0 0 0
76 1 4 0.0 0.1353385895 0.8398976922 -1.3553347588 0 0 0
77 1 2 0.0 -0.0218430981 1.0697027445 -0.8718765378 0 0 0
78 1 6 0.0 -0.0597182773 1.3087472916 -0.4490351081 0 0 0
79 1 2 0.0 -0.2084990293 -1.3162312508 -0.1009438783 0 1 0
80 1 5 0.0 -0.4311237335 -0.9472879171 0.1421847343 0 1 0
81 1 4 0.0 0.8445213437 -1.3499747515 0.495842427 -1 1 0
82 1 2 0.0 1.2780504227 1.397628665 0.4004989862 -1 0 0
83 1 6 0.0 -1.1852687597 -1.429787159 0.1670268476 0 1 0
84 1 2 0.0 -0.911408484 -1.3458665609 -0.0700290427 0 1 0
85 1 5 0.0 -0.7979293466 -1.1285573244 -0.4797734022 0 1 0
86 1 4 0.0 0.4203581214 1.2862215042 -0.2131389081 0 0 0
87 1 2 0.0 0.2773573399 0.8311375976 -0.498110801 0 0 0
88 1 6 0.0 0.1687158346 0.5440136194 -0.8680801392 0 0 0
89 1 2 0.0 0.0064533525 0.2999514341 -1.2552107573 0 0 0
90 1 5 0.0 -0.0285842307 -0.1241197735 1.2493815422 0 0 -1
91 1 4 0.0 -0.1827482581 0.2136802971 -0.5132341981 0 0 0
92 1 2 0.0 0.0727547929 0.3789230585 -0.1664102823 0 0 0
93 1 6 0.0 0.3129733205 0.5211135149 0.0490520447 0 0 0
94 1 2 0.0 0.7410796881 0.6874323487 0.1680045128 0 0 0
95 1 5 0.0 1.098629117 0.8624241352 0.0856530815 0 0 0
96 1 4 0.0 0.0158150028 -0.7963357568 0.3604607582 0 0 0
97 1 2 0.0 -0.2018372715 -0.4311955571 0.0861654431 0 0 0
98 1 6 0.0 -0.4834211469 -0.1349648237 -0.2219771445 0 0 0
99 1 2 0.0 -0.7710009217 0.1733216345 -0.48404181 0 0 0
100 1 5 0.0 -0.8412732482 0.539842844 -0.7588586807 0 0 0
101 1 4 0.0 0.2866002023 -0.659589529 -0.0977411643 0 0 0
102 1 2 0.0 0.3225180209 -0.3811206222 0.2623372674 0 0 0
103 1 6 0.0 0.3436890841 -0.1051183417 0.5615733266 0 0 0
104 1 2 0.0 0.3472019732 0.3025640249 0.6442543268 0 0 0
105 1 5 0.0 0.3101031184 0.6505416036 0.6047290564 0 0 0
106 1 4 0.0 1.2904479504 -5.432647e-04 -0.696105361 -1 0 0
107 1 2 0.0 -1.3714022636 0.2301865965 -1.077100873 0 0 0
108 1 6 0.0 -1.0776652098 0.4125238657 -1.4250700474 0 0 0
109 1 2 0.0 -0.6527861953 0.5381834507 1.2673411369 0 0 -1
110 1 5 0.0 -0.3299310207 0.7292540073 1.106033206 0 0 -1
111 1 4 0.0 1.00862813 -0.9566749334 -0.317217648 -1 0 0
112 1 2 0.0 1.4118645191 -0.686203301 -0.5306549668 -1 0 0
113 1 6 0.0 -1.2835683823 -0.5393147469 -0.8101848364 0 0 0
114 1 2 0.0 -1.1611683369 -0.3751684427 -1.2625992298 0 0 0
115 1 5 0.0 -1.2355461121 -0.0925254747 1.3231141567 0 0 -1
116 1 4 0.0 -1.3428223133 -0.8811755776 0.3198170662 -1 1 0
117 1 2 0.0 -0.9357200861 -1.0369917154 0.4317545891 -1 1 0
118 1 6 0.0 -0.6023580432 -1.3625655174 0.4519230127 -1 1 0
119 1 2 0.0 -0.3684107959 1.202468276 0.4963105917 -1 0 0
120 1 5 0.0 -0.1972703189 0.6312292814 0.4390003085 -1 0 0
121 1 4 0.0 -0.4992343485 -0.6290091276 -0.3832158148 1 0 0
122 1 2 0.0 -0.1446184218 -0.5524327755 -0.7312862873 1 0 0
123 1 6 0.0 0.1176762432 -0.4980179369 -1.2635798454 1 0 0
124 1 2 0.0 0.4183528125 -0.3879191279 1.251514554 1 0 -1
125 1 5 0.0 0.758031249 -0.3248425424 0.8395412564 1 0 -1
126 1 4 0.0 -0.0745609403 0.9814453125 -0.0657778457 0 0 0
127 1 2 0.0 -0.2631269097 0.8104281425 -0.4552001357 0 0 0
128 1 6 0.0 -0.3374691308 0.6244117618 -0.8177273273 0 0 0
129 1 2 0.0 -0.441958636 0.4103913605 -1.1074742079 0 0 0
130 1 5 0.0 -0.6276271343 0.0070969681 -1.4157990217 0 0 0
131 1 4 0.0 0.6782884002 -0.1780157685 -1.2079330683 0 0 0
132 1 2 0.0 0.6852143407 0.3204038143 -1.2495296001 0 0 0
133 1 6 0.0 0.6752937436 0.7615169287 -1.3406298161 0 0 0
134 1 2 0.0 0.655589819 1.2695769072 1.4220790863 0 0 -1
135 1 5 0.0 0.7680017352 -1.1840171814 1.3467987776 0 1 -1
136 1 4 0.0 -1.4120557308 -1.1085788012 -0.7680305839 1 1 0
137 1 2 0.0 -1.1462901831 1.3493500948 -0.6661531925 1 0 0
138 1 6 0.0 -0.9600862861 0.978675127 -0.432182163 1 0 0
139 1 2 0.0 -0.7275339961 0.6746169925 -0.290784359 1 0 0
140 1 5 0.0 -0.4327127039 0.3835122883 -0.0872092098 1 0 0
141 1 4 0.0 0.961075604 -1.4309756756 -0.020556597 -1 0 0
142 1 2 0.0 0.8848760724 0.9801988602 -0.3403197229 -1 -1 0
143 1 6 0.0 0.8426904678 0.4423170388 -0.5892739892 -1 -1 0
144 1 2 0.0 0.5713737607 0.0782940462 -0.7844326496 -1 -1 0
145 1 5 0.0 0.2351571769 -0.0810874477 -0.9248703122 -1 -1 0
146 1 4 0.0 -0.3272157609 1.146086812 -1.2696437836 0 -1 0
147 1 2 0.0 0.099642694 1.3330043554 1.3166525364 0 -1 -1
148 1 6 0.0 0.4136537313 -1.321156621 1.0240799189 0 0 -1
149 1 2 0.0 0.73380512 -1.0049587488 0.8602192402 0 0 -1
150 1 5 0.0 1.0789612532 -0.7605633736 0.7513431907 0 0 -1
151 1 4 0.0 0.8493703008 0.8845275044 -0.8641756177 0 -1 1
152 1 2 0.0 0.5327951312 1.1453208923 -0.9366642833 0 -1 1
153 1 6 0.0 0.2123774886 -1.3504298925 -1.0353304148 0 0 1
154 1 2 0.0 -0.1015374586 -1.0974858999 -1.1103118658 0 0 1
155 1 5 0.0 -0.4495466352 -0.8039531708 -1.3283512592 0 0 1
156 1 4 0.0 -1.1630709171 -0.9331381917 -1.169921279 1 0 0
157 1 2 0.0 1.4228105545 -1.1489479542 -1.3885599375 0 0 0
158 1 6 0.0 1.1771378517 1.4021594524 1.1654782295 0 -1 -1
159 1 2 0.0 1.046135664 1.086910367 0.7625932097 0 -1 -1
160 1 5 0.0 1.2080299854 0.8089758158 0.6075371504 0 -1 -1

Bonds

1 1 1 2
2 12 1 125
3 2 2 3
4 7 3 121
5 1 4 5
6 11 4 146
7 12 4 100
8 2 5 6
9 1 7 8
10 12 7 140
11 12 7 120
12 2 8 9
13 8 9 90
14 1 10 11
15 12 10 95
16 2 11 12
17 1 13 14
18 12 13 150
19 2 14 15
20 8 15 160
21 7 15 71
22 1 16 17
23 12 16 85
24 11 16 156
25 2 17 18
26 8 18 145
27 7 18 91
28 1 19 20
29 2 20 21
30 8 21 75
31 7 21 131
32 1 22 23
33 2 23 24
34 8 24 70
35 8 24 115
36 1 25 26
37 11 25 106
38 2 26 27
39 7 27 141
40 7 27 116
41 1 28 29
42 11 28 111
43 11 28 86
44 2 29 30
45 1 31 32
46 2 32 33
47 1 34 35
48 11 34 76
49 2 35 36
50 1 37 38
51 2 38 39
52 8 39 110
53 1 40 41
54 11 40 96
55 11 40 81
56 2 41 42
57 8 42 105
58 7 42 126
59 1 43 44
60 11 43 101
61 2 44 45
62 1 46 47
63 12 46 80
64 2 47 48
65 8 48 130
66 8 48 155
67 1 49 50
68 2 50 51
69 1 52 53
70 2 53 54
71 1 55 56
72 11 55 66
73 11 55 136
74 2 56 57
75 8 57 65
76 8 57 135
77 1 58 59
78 11 58 61
79 11 58 151
80 2 59 60
81 5 61 62
82 4 62 63
83 4 63 64
84 3 64 65
85 5 66 67
86 4 67 68
87 4 68 69
88 3 69 70
89 5 71 72
90 4 72 73
91 4 73 74
92 3 74 75
93 5 76 77
94 4 77 78
95 4 78 79
96 3 79 80
97 5 81 82
98 4 82 83
99 4 83 84
100 3 84 85
101 5 86 87
102 4 87 88
103 4 88 89
104 3 89 90
105 5 91 92
106 4 92 93
107 4 93 94
108 3 94 95
109 5 96 97
110 4 97 98
111 4 98 99
112 3 99 100
113 5 101 102
114 4 102 103
115 4 103 104
116 3 104 105
117 5 106 107
118 4 107 108
119 4 108 109
120 3 109 110
121 5 111 112
122 4 112 113
123 4 113 114
124 3 114 115
125 5 116 117
126 4 117 118
127 4 118 119
128 3 119 120
129 5 121 122
130 4 122 123
131 4 123 124
132 3 124 125
133 5 126 127
134 4 127 128
135 4 128 129
136 3 129 130
137 5 131 132
138 4 132 133
139 4 133 134
140 3 134 135
141 5 136 137
142 4 137 138
143 4 138 139
144 3 139 140
145 5 141 142
146 4 142 143
147 4 143 144
148 3 144 145
149 5 146 147
150 4 147 148
151 4 148 149
152 3 149 150
153 5 151 152
154 4 152 153
155 4 153 154
156 3 154 155
157 5 156 157
158 4 157 158
159 4 158 159
160 3 159 160
