# LAMMPS data file written by Ovito 3.0.0-dev349
160 atoms
160 bonds
6 atom types
12 bond types
-1.4303923845 1.4303923845 xlo xhi
-1.4303923845 1.4303923845 ylo yhi
-1.4303923845 1.4303923845 zlo zhi

Atoms # full

1 1 1 0.0 1.2248615026 -0.1084175482 0.3787937462 0 0 0
2 1 2 0.0 -1.3794299364 -0.5093714595 0.0045825471 1 0 0
3 1 3 0.0 -0.9887169003 -0.7140259743 -0.1104372218 1 0 0
4 1 1 0.0 -0.7583934069 0.828958571 -1.2026141882 1 0 1
5 1 2 0.0 -1.0508749485 0.9482765794 1.3226450682 1 0 0
6 1 3 0.0 -1.3662221432 1.0920078754 1.1836179495 1 0 0
7 1 1 0.0 -0.2257490605 0.1585389227 0.3242163956 1 -1 0
8 1 2 0.0 -0.2294865996 -0.2277727276 0.6369273067 1 -1 0
9 1 3 0.0 -0.1271614432 -0.382390976 1.1955904961 1 -1 0
10 1 1 0.0 -1.3813166618 1.2051948309 -0.2977851927 0 -1 0
11 1 2 0.0 1.1834692955 1.2513113022 -0.6711937785 -1 -1 0
12 1 3 0.0 0.9712277055 -1.2865062952 -1.0160237551 -1 0 0
13 1 1 0.0 -1.2570521832 -0.5301876664 0.6127509475 0 0 0
14 1 2 0.0 -1.2423788309 -0.107913889 0.6981226802 0 0 0
15 1 3 0.0 -1.225489378 0.4327046871 0.5011656284 0 0 0
16 1 1 0.0 -0.7718975544 -0.8473089933 -0.9763702154 -1 0 1
17 1 2 0.0 -0.6102348566 -0.4342678785 -0.9796159267 -1 0 1
18 1 3 0.0 -0.216517359 -0.1104649007 -1.024119854 -1 0 1
19 1 1 0.0 0.6609622836 -1.271853447 -0.6041197181 -1 0 1
20 1 2 0.0 0.5801044106 -0.9253216386 -0.8405416608 -1 0 1
21 1 3 0.0 0.6078957915 -0.6979106069 -1.2390192747 -1 0 1
22 1 1 0.0 1.1503367424 1.0513700247 -1.3119943142 0 0 1
23 1 2 0.0 1.2806121111 0.6449599862 -1.4052424431 0 0 1
24 1 3 0.0 -1.4168323278 0.3328505158 1.1598975658 1 0 0
25 1 1 0.0 1.0515630245 -0.1530655771 -0.1427085251 0 0 1
26 1 2 0.0 0.9701180458 -0.5352692008 0.1150999963 0 0 1
27 1 3 0.0 1.1017252207 -0.9236077666 0.152217865 0 0 1
28 1 1 0.0 0.5308293104 -1.0387455225 -0.0186267234 0 0 0
29 1 2 0.0 0.4969566166 -0.8697964549 0.3823293447 0 0 0
30 1 3 0.0 0.2632198036 -0.5386318564 0.7479196787 0 0 0
31 1 1 0.0 -1.01826334 -0.1263273358 0.0923375636 0 1 0
32 1 2 0.0 -1.3530716896 0.1385706812 -0.1432186067 0 1 0
33 1 3 0.0 1.1301136017 0.4723272026 -0.1038581133 -1 1 0
34 1 1 0.0 0.1902259588 0.523504138 1.1357985735 0 -1 -1
35 1 2 0.0 0.6196064353 0.2207862288 1.130479455 0 -1 -1
36 1 3 0.0 0.9927570224 -0.1465091258 1.29720366 0 -1 -1
37 1 1 0.0 0.9071144462 0.7442424893 1.0938560963 0 0 0
38 1 2 0.0 0.5754569769 0.962549448 1.0525138378 0 0 0
39 1 3 0.0 0.1382066905 1.0674732924 0.9043841362 0 0 0
40 1 1 0.0 0.1202927902 -1.1477922201 0.7118842006 0 0 0
41 1 2 0.0 0.0579010285 1.4116202593 0.487326622 0 -1 0
42 1 3 0.0 0.2331989408 1.1233837605 0.2983687222 0 -1 0
43 1 1 0.0 0.1551121324 -1.0559822321 -0.5339309573 0 0 0
44 1 2 0.0 -0.3359509408 -1.118047595 -0.8132424355 0 0 0
45 1 3 0.0 -0.53249228 -1.303429842 -1.1731743813 0 0 0
46 1 1 0.0 -0.7351254225 -0.5469962358 0.4487698376 1 0 0
47 1 2 0.0 -0.7896623015 -0.6096468568 0.9500104189 1 0 0
48 1 3 0.0 -0.6329746246 -0.5196884871 1.3666642904 1 0 0
49 1 1 0.0 -0.6850302815 0.4480397105 0.4504753053 0 1 0
50 1 2 0.0 -0.6691285968 0.7387904525 0.1467693001 0 1 0
51 1 3 0.0 -0.6851506233 1.0924295187 0.0647092834 0 1 0
52 1 1 0.0 -0.7463889718 0.0829885826 0.9557923079 0 1 0
53 1 2 0.0 -0.2468051165 0.1443891227 1.0064401627 0 1 0
54 1 3 0.0 0.1411970407 -0.0098977815 0.9777534008 0 1 0
55 1 1 0.0 1.0338490009 -0.7736968994 -0.9912976027 -1 0 1
56 1 2 0.0 1.0914257765 -0.6397433877 -1.3209335804 -1 0 1
57 1 3 0.0 1.0057440996 -0.7604954243 1.2216277122 -1 0 0
58 1 1 0.0 -1.4067343473 0.5851958394 -0.7259916663 0 0 0
59 1 2 0.0 -1.2438530922 0.8864437938 -0.9939345121 0 0 0
60 1 3 0.0 -1.2378265858 1.3827322721 -1.1380485296 0 0 0
61 1 4 0.0 -1.2224458456 0.6558548212 -0.2386764437 1 0 0
62 1 2 0.0 -1.2303118706 0.8520435691 0.2129385471 1 0 0
63 1 6 0.0 -1.2213144302 1.1908512115 0.5707426071 1 0 0
64 1 2 0.0 -1.1999131441 -1.2858748436 0.8283345699 1 1 0
65 1 5 0.0 -1.3937240839 -0.9013587236 1.001737833 1 1 0
66 1 4 0.0 0.7105388641 -0.4829302728 -0.6927384734 -1 0 0
67 1 2 0.0 0.5283945799 -0.2291313857 -0.253661871 -1 0 0
68 1 6 0.0 0.5897051096 0.1075251475 0.0473732948 -1 0 0
69 1 2 0.0 0.8200014234 0.2613502443 0.4417190254 -1 0 0
70 1 5 0.0 1.1024477482 0.2974265218 0.7600607872 -1 0 0
71 1 4 0.0 -0.962330997 0.7928503752 0.7584713101 0 -1 0
72 1 2 0.0 -0.6957398653 1.1040360928 0.9533951879 0 -1 0
73 1 6 0.0 -0.4404289126 1.4067169428 1.0841289759 0 -1 0
74 1 2 0.0 -0.1294347495 -1.0923080444 1.1841371059 0 0 0
75 1 5 0.0 0.1793279946 -0.8572105169 1.3237169981 0 0 0
76 1 4 0.0 0.1312420219 0.8014365435 -1.3158420324 0 0 0
77 1 2 0.0 -0.0036084997 1.0620429516 -0.9112748504 0 0 0
78 1 6 0.0 -0.210152775 1.3645381927 -0.5179971457 0 0 0
79 1 2 0.0 -0.3452351093 -1.289522171 -0.1982976198 0 1 0
80 1 5 0.0 -0.5118798614 -0.9270321727 0.1162154675 0 1 0
81 1 4 0.0 0.6504705548 -1.3328440189 0.4839919806 -1 1 0
82 1 2 0.0 1.1451513767 -1.4036072493 0.324121654 -1 1 0
83 1 6 0.0 -1.3585355282 -1.3667945862 0.1373046488 0 1 0
84 1 2 0.0 -0.9809889793 -1.2971442938 -0.1958327591 0 1 0
85 1 5 0.0 -0.8302744627 -1.0738970041 -0.5260992646 0 1 0
86 1 4 0.0 0.4178524315 1.3310577869 -0.1864019185 0 0 0
87 1 2 0.0 0.2842142284 0.9041873813 -0.4213695228 0 0 0
88 1 6 0.0 0.2549363971 0.5924648046 -0.7379441261 0 0 0
89 1 2 0.0 0.204604432 0.3289463818 -1.0772548914 0 0 0
90 1 5 0.0 0.1020751968 -0.0192583818 -1.3713879585 0 0 0
91 1 4 0.0 -0.081575118 0.2095228732 -0.6027171612 0 0 0
92 1 2 0.0 0.123471722 0.4278868735 -0.2284638584 0 0 0
93 1 6 0.0 0.3767958581 0.6201512218 0.0238239355 0 0 0
94 1 2 0.0 0.7243007421 0.8090884089 0.1343382001 0 0 0
95 1 5 0.0 1.1303392649 1.0069332123 0.0332405753 0 0 0
96 1 4 0.0 -0.0990179628 -0.777371645 0.4701961577 0 0 0
97 1 2 0.0 -0.325624615 -0.4354704618 0.1711514294 0 0 0
98 1 6 0.0 -0.5517847538 -0.2305458486 -0.1202486232 0 0 0
99 1 2 0.0 -0.770303607 -0.0096377581 -0.5075823069 0 0 0
100 1 5 0.0 -0.7702602744 0.3364626169 -0.8923957944 0 0 0
101 1 4 0.0 0.0899840593 -0.7564712167 -0.0958844721 0 0 0
102 1 2 0.0 0.2402719855 -0.4574726224 0.2357652038 0 0 0
103 1 6 0.0 0.2682520449 -0.1096014157 0.4514449835 0 0 0
104 1 2 0.0 0.3159786761 0.3456486464 0.5671818852 0 0 0
105 1 5 0.0 0.3623365462 0.7177812457 0.5078229904 0 0 0
106 1 4 0.0 1.2263543606 -0.0611156188 -0.6377534866 -1 0 0
107 1 2 0.0 -1.288387537 0.1110077724 -1.0273574591 0 0 0
108 1 6 0.0 -0.9113079309 0.3274336755 1.4290072918 0 0 -1
109 1 2 0.0 -0.6490803361 0.5000746846 1.2394013405 0 0 -1
110 1 5 0.0 -0.2782059014 0.764868319 1.0716530085 0 0 -1
111 1 4 0.0 0.8504606485 -0.7805979848 -0.3292010128 -1 0 0
112 1 2 0.0 1.2700332403 -0.6080117226 -0.5718284249 -1 0 0
113 1 6 0.0 -1.2777075768 -0.4894073904 -0.8656141758 0 0 0
114 1 2 0.0 -1.1445636749 -0.3754264116 -1.2205967903 0 0 0
115 1 5 0.0 -1.2249387503 -0.1107252166 1.3454880714 0 0 -1
116 1 4 0.0 -1.2332410812 -0.9553448558 0.3103812933 -1 1 0
117 1 2 0.0 -0.8705638647 -1.1503440142 0.4538156986 -1 1 0
118 1 6 0.0 -0.5709456205 1.4184894562 0.5270271897 -1 0 0
119 1 2 0.0 -0.3342055678 0.9877439737 0.5925914049 -1 0 0
120 1 5 0.0 -0.2070511281 0.6224014163 0.4896967411 -1 0 0
121 1 4 0.0 -0.5575930476 -0.6036256552 -0.4978542328 1 0 0
122 1 2 0.0 -0.1807824522 -0.5948636532 -0.7833411694 1 0 0
123 1 6 0.0 0.1398122013 -0.4710140824 -1.1877579689 1 0 0
124 1 2 0.0 0.4937490523 -0.3183832765 1.2095268965 1 0 -1
125 1 5 0.0 0.8050610423 -0.1707945019 0.8075104952 1 0 -1
126 1 4 0.0 -0.089824006 0.9970961809 -0.1072846204 0 0 0
127 1 2 0.0 -0.2270607352 0.8032904267 -0.4758380949 0 0 0
128 1 6 0.0 -0.2498002201 0.5834164619 -0.8591777086 0 0 0
129 1 2 0.0 -0.3495263159 0.3712292314 -1.2340016365 0 0 0
130 1 5 0.0 -0.5406590104 -0.0189033076 -1.429674387 0 0 0
131 1 4 0.0 0.6694952846 -0.1334964931 -1.1665371656 0 0 0
132 1 2 0.0 0.6993534565 0.3444159329 -1.1728001833 0 0 0
133 1 6 0.0 0.6841174364 0.7746382356 -1.2828415632 0 0 0
134 1 2 0.0 0.6280574799 1.2592166662 -1.3865122795 0 0 0
135 1 5 0.0 0.7119439244 -1.144372344 1.3516031504 0 1 -1
136 1 4 0.0 -1.4109743834 -1.1288833618 -0.7533503175 1 1 0
137 1 2 0.0 -1.0460211039 1.324754715 -0.6823793054 1 0 0
138 1 6 0.0 -0.8338696957 0.9080492258 -0.5134538412 1 0 0
139 1 2 0.0 -0.6530270576 0.5048179626 -0.3097652495 1 0 0
140 1 5 0.0 -0.4793049097 0.2726489902 -0.0921633393 1 0 0
141 1 4 0.0 0.9244749546 -1.3889610767 -0.1567696929 -1 0 0
142 1 2 0.0 0.825469017 1.0015114546 -0.3542986214 -1 -1 0
143 1 6 0.0 0.6874301434 0.4997477233 -0.4971351326 -1 -1 0
144 1 2 0.0 0.5380217433 0.1823366284 -0.6170504093 -1 -1 0
145 1 5 0.0 0.262174964 -0.1123101786 -0.8342794776 -1 -1 0
146 1 4 0.0 -0.3201249242 1.046428442 -1.3423774242 0 -1 0
147 1 2 0.0 -0.0018829572 1.2988198996 1.3544484377 0 -1 -1
148 1 6 0.0 0.3491534889 -1.3326941729 1.0971450806 0 0 -1
149 1 2 0.0 0.7009999752 -0.9957901835 0.8815426826 0 0 -1
150 1 5 0.0 1.1247475147 -0.7505460978 0.6941062212 0 0 -1
151 1 4 0.0 1.0007320642 0.7323830724 -0.8283046484 0 -1 1
152 1 2 0.0 0.6364459991 1.0123437643 -0.8723056912 0 -1 1
153 1 6 0.0 0.30662328 -1.4214594364 -0.9853579402 0 0 1
154 1 2 0.0 0.0595288537 -1.1302819252 -1.1165980101 0 0 1
155 1 5 0.0 -0.2994128764 -0.8011327386 -1.2752536535 0 0 1
156 1 4 0.0 -1.231659174 -0.9979490042 -1.222334981 1 0 0
157 1 2 0.0 1.2434076071 -1.2149003744 1.374845624 0 0 -1
158 1 6 0.0 0.9789169431 1.4122774601 0.9960274696 0 -1 -1
159 1 2 0.0 0.938319087 1.0731106997 0.6579856873 0 -1 -1
160 1 5 0.0 1.1933534145 0.7251648903 0.5013486743 0 -1 -1

Bonds

1 1 1 2
2 12 1 125
3 2 2 3
4 7 3 121
5 1 4 5
6 11 4 146
7 12 4 100
8 2 5 6
9 1 7 8
10 12 7 140
11 12 7 120
12 2 8 9
13 8 9 90
14 1 10 11
15 12 10 95
16 2 11 12
17 1 13 14
18 12 13 150
19 2 14 15
20 8 15 160
21 7 15 71
22 1 16 17
23 12 16 85
24 11 16 156
25 2 17 18
26 8 18 145
27 7 18 91
28 1 19 20
29 2 20 21
30 8 21 75
31 7 21 131
32 1 22 23
33 2 23 24
34 8 24 70
35 8 24 115
36 1 25 26
37 11 25 106
38 2 26 27
39 7 27 141
40 7 27 116
41 1 28 29
42 11 28 111
43 11 28 86
44 2 29 30
45 1 31 32
46 2 32 33
47 1 34 35
48 11 34 76
49 2 35 36
50 1 37 38
51 2 38 39
52 8 39 110
53 1 40 41
54 11 40 96
55 11 40 81
56 2 41 42
57 8 42 105
58 7 42 126
59 1 43 44
60 11 43 101
61 2 44 45
62 1 46 47
63 12 46 80
64 2 47 48
65 8 48 130
66 8 48 155
67 1 49 50
68 2 50 51
69 1 52 53
70 2 53 54
71 1 55 56
72 11 55 66
73 11 55 136
74 2 56 57
75 8 57 65
76 8 57 135
77 1 58 59
78 11 58 61
79 11 58 151
80 2 59 60
81 5 61 62
82 4 62 63
83 4 63 64
84 3 64 65
85 5 66 67
86 4 67 68
87 4 68 69
88 3 69 70
89 5 71 72
90 4 72 73
91 4 73 74
92 3 74 75
93 5 76 77
94 4 77 78
95 4 78 79
96 3 79 80
97 5 81 82
98 4 82 83
99 4 83 84
100 3 84 85
101 5 86 87
102 4 87 88
103 4 88 89
104 3 89 90
105 5 91 92
106 4 92 93
107 4 93 94
108 3 94 95
109 5 96 97
110 4 97 98
111 4 98 99
112 3 99 100
113 5 101 102
114 4 102 103
115 4 103 104
116 3 104 105
117 5 106 107
118 4 107 108
119 4 108 109
120 3 109 110
121 5 111 112
122 4 112 113
123 4 113 114
124 3 114 115
125 5 116 117
126 4 117 118
127 4 118 119
128 3 119 120
129 5 121 122
130 4 122 123
131 4 123 124
132 3 124 125
133 5 126 127
134 4 127 128
135 4 128 129
136 3 129 130
137 5 131 132
138 4 132 133
139 4 133 134
140 3 134 135
141 5 136 137
142 4 137 138
143 4 138 139
144 3 139 140
145 5 141 142
146 4 142 143
147 4 143 144
148 3 144 145
149 5 146 147
150 4 147 148
151 4 148 149
152 3 149 150
153 5 151 152
154 4 152 153
155 4 153 154
156 3 154 155
157 5 156 157
158 4 157 158
159 4 158 159
160 3 159 160
