# LAMMPS data file written by Ovito 3.0.0-dev349
160 atoms
120 bonds
6 atom types
5 bond types
-1.4025775195 1.4025775195 xlo xhi
-1.4025775195 1.4025775195 ylo yhi
-1.4025775195 1.4025775195 zlo zhi

Atoms # full

1 1 1 0.0 0.9693046808 -0.1503903568 0.1582600176 0 0 0
2 1 2 0.0 1.3732001781 -0.2984029353 0.2169275135 0 0 0
3 1 3 0.0 -1.1691149473 -0.6332940459 0.4390689433 1 0 0
4 1 1 0.0 1.1505910158 0.1361742914 -1.2947516441 0 0 1
5 1 2 0.0 1.0027838945 0.558868289 -1.0468769073 0 0 1
6 1 3 0.0 0.935557127 0.990717411 -1.0296354294 0 0 1
7 1 1 0.0 -1.3423236609 -1.1442629099 0.5137380362 1 0 0
8 1 2 0.0 -1.0456171036 1.3000612259 0.4499184191 1 -1 0
9 1 3 0.0 -0.7636325359 1.0408806801 0.1372021735 1 -1 0
10 1 1 0.0 0.2184185088 -0.7084723115 -0.6057096124 -1 0 0
11 1 2 0.0 0.6147819757 -0.4552907944 -0.8379154801 -1 0 0
12 1 3 0.0 0.8082687855 -0.2844360769 -1.2531305552 -1 0 0
13 1 1 0.0 0.0018298673 0.3191144168 0.9881085157 0 0 0
14 1 2 0.0 -0.3802492619 0.5515583158 1.0597815514 0 0 0
15 1 3 0.0 -0.8997902274 0.5872446895 1.1303368807 0 0 0
16 1 1 0.0 0.9979794621 -0.6570748687 0.5042907596 -1 0 0
17 1 2 0.0 0.7111859322 -0.3516708016 0.7103160024 -1 0 0
18 1 3 0.0 0.3734564781 0.0021950095 0.7036154866 -1 0 0
19 1 1 0.0 0.3018243909 -0.0536411665 1.2699849606 -1 0 0
20 1 2 0.0 0.7517926693 0.0205288585 1.1797301769 -1 0 0
21 1 3 0.0 1.1639809608 -0.1350993365 0.9976052642 -1 0 0
22 1 1 0.0 1.0696521997 -0.0189373996 -0.7377178669 0 0 1
23 1 2 0.0 1.2743406296 -0.3132285774 -1.0305310488 0 0 1
24 1 3 0.0 -1.2131111622 -0.4024097621 -1.3459986448 1 0 1
25 1 1 0.0 0.7775020599 -1.1195888519 0.0822565407 0 0 1
26 1 2 0.0 0.8227784634 -1.2740386724 -0.2808195353 0 0 1
27 1 3 0.0 0.9080873132 -1.2618404627 -0.6732746959 0 0 1
28 1 1 0.0 0.4328506291 -0.7938953638 0.2967664897 0 0 0
29 1 2 0.0 0.5702914596 -0.9035906196 0.7312582135 0 0 0
30 1 3 0.0 0.9038083553 -1.0721312761 0.996465683 0 0 0
31 1 1 0.0 0.1321907043 -0.4546245039 0.5408716202 0 1 0
32 1 2 0.0 0.3997840285 -0.1702575088 0.1755201519 0 1 0
33 1 3 0.0 0.5837398171 0.309125036 0.1048597321 0 1 0
34 1 1 0.0 -0.1327650249 0.992164433 0.4722721279 0 -1 -1
35 1 2 0.0 0.0940955654 0.8853231072 0.8781110644 0 -1 -1
36 1 3 0.0 0.1276930422 0.8616889119 1.283364296 0 -1 -1
37 1 1 0.0 -0.4664791524 0.5666801333 0.1281853616 0 0 0
38 1 2 0.0 -0.2908833921 0.3163235784 0.542657733 0 0 0
39 1 3 0.0 -0.2593969107 -0.0393552929 0.7145619988 0 0 0
40 1 1 0.0 -0.2432056069 -1.3179037571 0.2865871787 0 0 0
41 1 2 0.0 0.1633492857 -1.2418318987 0.583894372 0 0 0
42 1 3 0.0 0.4959961474 -1.3824398518 0.9702565074 0 0 0
43 1 1 0.0 0.6135377884 -0.0155902915 -0.5011600852 0 0 0
44 1 2 0.0 0.2371360064 -0.0870264247 -0.3524016738 0 0 0
45 1 3 0.0 -0.1817541122 -0.3491032422 -0.2579513788 0 0 0
46 1 1 0.0 1.3301486969 -0.8293549418 0.8886805177 0 0 0
47 1 2 0.0 -1.0910539627 -0.5145208836 0.9367672205 1 0 0
48 1 3 0.0 -0.6685515046 -0.5125378966 1.0471904278 1 0 0
49 1 1 0.0 -0.9288703203 -1.0077855587 0.8721655607 0 1 0
50 1 2 0.0 -0.8344610929 -1.0603215694 0.3897964656 0 1 0
51 1 3 0.0 -1.0396460295 -1.2205913067 -0.0415174179 0 1 0
52 1 1 0.0 -0.2649563849 -0.7499409914 0.3361010849 0 1 0
53 1 2 0.0 -0.5382156372 -0.544485569 0.5872792006 0 1 0
54 1 3 0.0 -0.8072833419 -0.1293341219 0.621643424 0 1 0
55 1 1 0.0 0.1268471628 -0.9656310678 1.2273851633 -1 0 0
56 1 2 0.0 0.4883309007 -0.573006928 1.2379977703 -1 0 0
57 1 3 0.0 0.9540585876 -0.5495275855 1.1412670612 -1 0 0
58 1 1 0.0 -0.5763639212 1.0899960995 -0.716146946 0 0 0
59 1 2 0.0 -0.5138676167 1.3163970709 -0.2998128533 0 0 0
60 1 3 0.0 -0.509216249 -1.0427591801 -0.089333877 0 1 0
61 1 4 0.0 0.9476709366 0.6022006869 0.3008975685 0 0 0
62 1 2 0.0 1.1325017214 0.9244467616 0.6486413479 0 0 0
63 1 6 0.0 1.2723113298 1.2095268965 0.8667778969 0 0 0
64 1 2 0.0 -1.339327693 -1.2594220638 1.1030880213 1 1 0
65 1 5 0.0 -1.1695246696 -0.8976022601 1.3443236351 1 1 0
66 1 4 0.0 1.0725878477 0.2700589001 -0.2730595469 -1 0 0
67 1 2 0.0 1.2925783396 0.2428561002 0.0954750627 -1 0 0
68 1 6 0.0 -1.3408814669 0.2022663653 0.485286057 0 0 0
69 1 2 0.0 -1.2127555609 0.1891512275 0.9495148659 0 0 0
70 1 5 0.0 -1.0872420073 0.1205552146 -1.3236647844 0 0 1
71 1 4 0.0 -0.7590358853 0.4440436661 0.6702873111 0 -1 0
72 1 2 0.0 -0.6366546154 0.8365843892 0.7114872336 0 -1 0
73 1 6 0.0 -0.5387486219 1.2739949226 0.739854753 0 -1 0
74 1 2 0.0 -0.3632178307 -1.0431274176 0.7495445609 0 0 0
75 1 5 0.0 -0.1788293123 -0.6450030208 0.9668499231 0 0 0
76 1 4 0.0 -0.6397166848 0.1135000661 1.1045225859 0 0 -1
77 1 2 0.0 -0.5799843073 0.2644601464 -1.1863886118 0 0 0
78 1 6 0.0 -0.4598145783 0.4426267445 -0.7996793985 0 0 0
79 1 2 0.0 -0.3427439034 0.7575851679 -0.3899762332 0 0 0
80 1 5 0.0 -0.180401817 1.0602369308 -0.0372500531 0 0 0
81 1 4 0.0 -0.7813233137 -1.0856416225 -0.6047341228 0 1 0
82 1 2 0.0 -0.4032601118 -1.0595818758 -0.7974655032 0 1 0
83 1 6 0.0 0.002116339 -0.9861115813 -0.9547640681 0 1 0
84 1 2 0.0 0.446787864 -0.853643477 -1.0662881136 0 1 0
85 1 5 0.0 0.8924447894 -0.849259913 -1.2158966064 0 1 0
86 1 4 0.0 0.0736487657 -0.821044445 -0.1075779498 0 1 0
87 1 2 0.0 -0.0491968729 -1.2153903246 -0.4455167055 0 1 0
88 1 6 0.0 -0.070083268 1.2398159504 -0.6896877885 0 0 0
89 1 2 0.0 -0.1171439514 0.8697659969 -0.9463839531 0 0 0
90 1 5 0.0 -0.1157243475 0.5845258236 -1.140157342 0 0 0
91 1 4 0.0 0.5561662316 0.2327077985 -0.9589489102 0 0 0
92 1 2 0.0 0.6907026768 0.4999204576 -0.6110441685 0 0 0
93 1 6 0.0 0.7625789046 0.760795176 -0.2150933146 0 0 0
94 1 2 0.0 0.878567338 1.085694313 0.0939725637 0 0 0
95 1 5 0.0 0.8504289389 -1.3975940943 0.5023831725 0 1 0
96 1 4 0.0 -0.5228814483 -0.0687913373 -0.4692153037 0 0 0
97 1 2 0.0 -0.7168671489 0.3873001337 -0.3446646929 0 0 0
98 1 6 0.0 -0.8661004305 0.7542538643 -0.333760798 0 0 0
99 1 2 0.0 -1.0857224464 1.171297431 -0.4026867747 0 0 0
100 1 5 0.0 -1.3135499954 -1.2203911543 -0.5306269526 0 1 0
101 1 4 0.0 -0.2021063566 0.2133409828 -0.1516429782 0 0 0
102 1 2 0.0 0.1036208943 0.2935663462 0.1732369512 0 0 0
103 1 6 0.0 0.3631916344 0.5079684854 0.5561016798 0 0 0
104 1 2 0.0 0.5635972619 0.7062434554 0.8568849564 0 0 0
105 1 5 0.0 0.775739789 0.9366245866 1.1528173685 0 0 0
106 1 4 0.0 1.2964931726 -0.2841155827 -0.2754205465 -1 0 0
107 1 2 0.0 -1.2236185074 -0.2537259459 -0.609052062 0 0 0
108 1 6 0.0 -0.9215859175 -0.2546440065 -0.9378795624 0 0 0
109 1 2 0.0 -0.6148106456 -0.2330269963 -1.273889184 0 0 0
110 1 5 0.0 -0.1862089783 -0.1973478496 1.2219794989 0 0 -1
111 1 4 0.0 0.6098429561 -0.5635293126 -0.1735987514 -1 0 0
112 1 2 0.0 0.9332118034 -0.6691876054 -0.4810898304 -1 0 0
113 1 6 0.0 1.2439278364 -0.7267870903 -0.6810054183 -1 0 0
114 1 2 0.0 -1.1778203249 -0.802793026 -0.8815089464 0 0 0
115 1 5 0.0 -0.7822934985 -0.7523537278 -1.0572862625 0 0 0
116 1 4 0.0 1.2362470627 -1.382409811 0.1320708245 -2 1 0
117 1 2 0.0 -1.3084214926 1.0240679979 0.1065559536 -1 0 0
118 1 6 0.0 -1.1265707016 0.6306897998 0.1189085245 -1 0 0
119 1 2 0.0 -0.8618659973 0.2219260782 0.1895013005 -1 0 0
120 1 5 0.0 -0.4106954634 -0.1522689164 0.2224049568 -1 0 0
121 1 4 0.0 1.2747273445 -0.7701205015 -0.012727052 0 0 0
122 1 2 0.0 -1.1806758642 -0.7208482027 -0.3109013736 1 0 0
123 1 6 0.0 -0.7587273121 -0.5828236341 -0.5338841677 1 0 0
124 1 2 0.0 -0.3775759339 -0.5151523948 -0.7922578454 1 0 0
125 1 5 0.0 -0.019975163 -0.4227439761 -1.0696036816 1 0 0
126 1 4 0.0 0.4345189035 1.0373761654 0.4897778928 0 0 0
127 1 2 0.0 0.2981005907 0.8460923433 0.0864797011 0 0 0
128 1 6 0.0 0.1289937645 0.5162067413 -0.346573025 0 0 0
129 1 2 0.0 0.0402858667 0.2985231578 -0.6514384747 0 0 0
130 1 5 0.0 -0.0357903242 0.1193133369 -1.0137472153 0 0 0
131 1 4 0.0 0.8487403393 0.2386180311 0.6517111063 0 0 -1
132 1 2 0.0 1.1356145144 0.461078167 0.9229037166 0 0 -1
133 1 6 0.0 1.379960537 0.747337997 1.1793564558 0 0 -1
134 1 2 0.0 -1.2287979126 1.0987150669 -1.3572297096 1 0 0
135 1 5 0.0 -1.0524535179 -1.3748675585 -1.0956308842 1 1 0
136 1 4 0.0 1.1560370922 1.0634865761 -0.4411111772 0 0 0
137 1 2 0.0 1.3852500916 0.6532561779 -0.3806075156 0 0 0
138 1 6 0.0 -1.1882665157 0.1630945057 -0.3002324104 1 0 0
139 1 2 0.0 -0.9893631339 -0.1670110524 -0.0905320048 1 0 0
140 1 5 0.0 -0.7910270691 -0.5822737217 0.0332872197 1 0 0
141 1 4 0.0 0.3298206031 -1.3568130732 -7.139359e-04 -1 0 0
142 1 2 0.0 0.3819748163 1.1722624302 -0.3542810678 -1 -1 0
143 1 6 0.0 0.4265597761 0.9939544201 -0.7595310211 -1 -1 0
144 1 2 0.0 0.462823838 0.7376482487 -1.1112661362 -1 -1 0
145 1 5 0.0 0.4730164111 0.4749872088 1.3129884005 -1 -1 -1
146 1 4 0.0 -1.3483204842 0.295923382 -0.8354174495 0 -1 0
147 1 2 0.0 -1.0961630344 0.6189758182 -1.0654683113 0 -1 0
148 1 6 0.0 -0.7281472683 0.8627483845 -1.3123168945 0 -1 0
149 1 2 0.0 -0.3904316425 1.0475380421 1.2158437967 0 -1 -1
150 1 5 0.0 -0.0970220119 1.3904016018 1.0119539499 0 -1 -1
151 1 4 0.0 1.2122217417 -1.3014883995 -1.17727983 0 0 1
152 1 2 0.0 0.8287280202 -1.3451654911 -1.1885919571 0 0 1
153 1 6 0.0 0.3857699037 -1.3877420425 -1.1571071148 0 0 1
154 1 2 0.0 -0.0765404031 1.3543486595 -1.2072818279 0 -1 1
155 1 5 0.0 -0.4696068168 1.3137356043 -1.1623693705 0 -1 1
156 1 4 0.0 -0.3343678117 -0.9240028858 -1.3202751875 1 0 0
157 1 2 0.0 -0.6156178713 -1.15020895 1.3014525175 1 0 -1
158 1 6 0.0 -0.8724560142 1.3525220156 1.1573610306 1 -1 -1
159 1 2 0.0 -1.0582311153 1.0412598848 0.9552072287 1 -1 -1
160 1 5 0.0 -1.2409917116 0.6468516588 0.6922193766 1 -1 -1

Bonds

1 1 1 2
2 2 2 3
3 1 4 5
4 2 5 6
5 1 7 8
6 2 8 9
7 1 10 11
8 2 11 12
9 1 13 14
10 2 14 15
11 1 16 17
12 2 17 18
13 1 19 20
14 2 20 21
15 1 22 23
16 2 23 24
17 1 25 26
18 2 26 27
19 1 28 29
20 2 29 30
21 1 31 32
22 2 32 33
23 1 34 35
24 2 35 36
25 1 37 38
26 2 38 39
27 1 40 41
28 2 41 42
29 1 43 44
30 2 44 45
31 1 46 47
32 2 47 48
33 1 49 50
34 2 50 51
35 1 52 53
36 2 53 54
37 1 55 56
38 2 56 57
39 1 58 59
40 2 59 60
41 5 61 62
42 4 62 63
43 4 63 64
44 3 64 65
45 5 66 67
46 4 67 68
47 4 68 69
48 3 69 70
49 5 71 72
50 4 72 73
51 4 73 74
52 3 74 75
53 5 76 77
54 4 77 78
55 4 78 79
56 3 79 80
57 5 81 82
58 4 82 83
59 4 83 84
60 3 84 85
61 5 86 87
62 4 87 88
63 4 88 89
64 3 89 90
65 5 91 92
66 4 92 93
67 4 93 94
68 3 94 95
69 5 96 97
70 4 97 98
71 4 98 99
72 3 99 100
73 5 101 102
74 4 102 103
75 4 103 104
76 3 104 105
77 5 106 107
78 4 107 108
79 4 108 109
80 3 109 110
81 5 111 112
82 4 112 113
83 4 113 114
84 3 114 115
85 5 116 117
86 4 117 118
87 4 118 119
88 3 119 120
89 5 121 122
90 4 122 123
91 4 123 124
92 3 124 125
93 5 126 127
94 4 127 128
95 4 128 129
96 3 129 130
97 5 131 132
98 4 132 133
99 4 133 134
100 3 134 135
101 5 136 137
102 4 137 138
103 4 138 139
104 3 139 140
105 5 141 142
106 4 142 143
107 4 143 144
108 3 144 145
109 5 146 147
110 4 147 148
111 4 148 149
112 3 149 150
113 5 151 152
114 4 152 153
115 4 153 154
116 3 154 155
117 5 156 157
118 4 157 158
119 4 158 159
120 3 159 160
