# LAMMPS data file written by Ovito 3.0.0-dev349
160 atoms
153 bonds
6 atom types
12 bond types
-1.461503148 1.461503148 xlo xhi
-1.461503148 1.461503148 ylo yhi
-1.461503148 1.461503148 zlo zhi

Atoms # full

1 1 1 0.0 0.4420582354 -0.4643275738 1.1700143814 0 0 0
2 1 2 0.0 0.9781723022 -0.443166554 0.9060882926 0 0 0
3 1 3 0.0 -1.4230942726 -0.6158943772 0.849082768 1 0 0
4 1 1 0.0 -0.9840715528 0.8822725415 -1.1659064293 1 0 1
5 1 2 0.0 -1.4108393192 0.7601299882 -1.2031667233 1 0 1
6 1 3 0.0 1.026833415 0.7671547532 -1.0227097273 0 0 1
7 1 1 0.0 -0.8539102077 -0.0623644963 0.2278812677 1 -1 0
8 1 2 0.0 -0.7679162621 -0.0486429073 0.5775798559 1 -1 0
9 1 3 0.0 -0.459530741 0.0169893168 0.9429165721 1 -1 0
10 1 1 0.0 1.3136075735 -1.0772255659 -0.425534606 -1 0 0
11 1 2 0.0 0.9923599362 -1.0168362856 -0.6692396402 -1 0 0
12 1 3 0.0 0.4752116799 -1.0359803438 -0.8118977547 -1 0 0
13 1 1 0.0 -1.3039604425 -0.0393708572 0.7701611519 0 0 0
14 1 2 0.0 -1.3792368174 0.3766203225 0.6345727444 0 0 0
15 1 3 0.0 -1.2894017696 0.7482112646 0.7368552089 0 0 0
16 1 1 0.0 -0.3052359521 -0.4475454986 1.2315717936 -1 0 0
17 1 2 0.0 -0.0450134352 -0.083560653 1.3152353764 -1 0 0
18 1 3 0.0 0.2935118973 0.1069450825 -1.3323968649 -1 0 1
19 1 1 0.0 0.666515708 -0.7054268718 -0.3787707984 -1 0 1
20 1 2 0.0 0.6558756232 -0.5491680503 -0.6791213155 -1 0 1
21 1 3 0.0 0.7381930947 -0.5822660923 -1.1150176525 -1 0 1
22 1 1 0.0 1.3122289181 0.3881306052 -0.4421070218 0 0 1
23 1 2 0.0 1.3547992706 0.3489236236 -0.8530722857 0 0 1
24 1 3 0.0 -1.4356155396 0.1242279783 -1.3217453957 1 0 1
25 1 1 0.0 -1.4411610365 0.0272867363 0.0094574876 1 0 1
26 1 2 0.0 1.2927030325 -0.3374609351 0.2997292578 0 0 1
27 1 3 0.0 1.2413231134 -0.7949829102 0.41976282 0 0 1
28 1 1 0.0 0.4408024251 -0.589006424 0.5489811897 0 0 0
29 1 2 0.0 0.4826654792 -0.9989809394 0.7868744135 0 0 0
30 1 3 0.0 0.3722142875 -1.4460165501 0.8208268881 0 0 0
31 1 1 0.0 0.0185112413 -0.7850487232 0.8320821524 0 1 0
32 1 2 0.0 0.0358835571 -0.3308066726 0.8326203823 0 1 0
33 1 3 0.0 0.0023956166 0.0777706578 0.6197392941 0 1 0
34 1 1 0.0 0.1947707236 0.9363615513 1.2166118622 0 -1 -1
35 1 2 0.0 0.3766941726 0.4757202268 1.2252453566 0 -1 -1
36 1 3 0.0 0.4488227069 0.0659568682 1.0134211779 0 -1 -1
37 1 1 0.0 1.0622047186 0.8383134007 0.7937842011 0 0 0
38 1 2 0.0 0.738587141 0.5560355186 0.75533849 0 0 0
39 1 3 0.0 0.2940069735 0.4771428108 0.6744727492 0 0 0
40 1 1 0.0 0.1104050726 -1.1999112368 0.4784443676 0 0 0
41 1 2 0.0 0.3765055239 -1.4532065392 0.2141654491 0 0 0
42 1 3 0.0 0.4459768236 1.0239896774 -0.0602244698 0 -1 0
43 1 1 0.0 -0.3133835793 -1.3183567524 -0.4547539353 0 0 0
44 1 2 0.0 -0.6571207047 -1.4444915056 -0.1636770964 0 0 0
45 1 3 0.0 -1.0328625441 1.3543384075 -0.1116991863 0 -1 0
46 1 1 0.0 -0.38693735 -1.2872563601 0.3166776299 1 0 0
47 1 2 0.0 -0.5739266276 -1.0259991884 0.6765850186 1 0 0
48 1 3 0.0 -0.9170818925 -0.6768430471 0.7632149458 1 0 0
49 1 1 0.0 -0.4144275188 -0.5341504216 0.702470243 0 1 0
50 1 2 0.0 -0.6501284838 -0.7864059806 0.2237452567 0 1 0
51 1 3 0.0 -0.521871686 -0.9371550083 -0.1610786617 0 1 0
52 1 1 0.0 -1.2675837278 -0.3213751018 1.2297273874 0 1 0
53 1 2 0.0 -1.0947109461 0.089542307 1.2362271547 0 1 0
54 1 3 0.0 -1.1308625937 0.5672811866 1.1810339689 0 1 0
55 1 1 0.0 1.3319921494 -0.6142635345 -1.0571415424 -1 0 1
56 1 2 0.0 1.2001832724 -0.617205739 -1.4174617529 -1 0 1
57 1 3 0.0 0.9335861802 -0.878075242 1.1902850866 -1 0 0
58 1 1 0.0 1.2374402285 1.2368381023 -1.0387808084 -1 0 0
59 1 2 0.0 -1.2344713211 1.3339326382 -1.2626324892 0 0 0
60 1 3 0.0 -0.800503552 -1.4508886337 -1.1830430031 0 1 0
61 1 4 0.0 1.332875967 0.9814724922 -0.5883190632 0 0 0
62 1 2 0.0 -1.4279904366 0.9928827286 -0.1335074902 1 0 0
63 1 6 0.0 -1.3437292576 1.1326913834 0.2765698731 1 0 0
64 1 2 0.0 -1.3755093813 1.3543686867 0.645719409 1 0 0
65 1 5 0.0 1.3200385571 -1.1960813999 0.9394899607 0 1 0
66 1 4 0.0 1.1254674196 -0.3426506221 -0.6844084263 -1 0 0
67 1 2 0.0 0.9699816704 -0.1003387347 -0.2501569092 -1 0 0
68 1 6 0.0 0.9586167336 0.0154897757 0.1153761894 -1 0 0
69 1 2 0.0 1.0731073618 0.1372472346 0.5662810206 -1 0 0
70 1 5 0.0 1.2436050177 0.1685357839 1.1088755131 -1 0 0
71 1 4 0.0 -0.8483138084 1.0697152615 0.7397139668 0 -1 0
72 1 2 0.0 -0.4685088694 1.348585248 0.79964149 0 -1 0
73 1 6 0.0 -0.1474179029 -1.2928467989 0.9829513431 0 0 0
74 1 2 0.0 0.2374244481 -1.1079922915 1.2547334433 0 0 0
75 1 5 0.0 0.494695276 -0.9273123145 -1.3694256544 0 0 1
76 1 4 0.0 -0.1897053123 1.0709898472 -1.4072053432 0 0 0
77 1 2 0.0 -0.4035503864 1.0820664167 -1.0906835794 0 0 0
78 1 6 0.0 -0.4314281046 1.0823065042 -0.607570827 0 0 0
79 1 2 0.0 -0.2429288179 1.1262923479 -0.2681437731 0 0 0
80 1 5 0.0 -0.0743280277 1.1737934351 0.0254913103 0 0 0
81 1 4 0.0 -1.3128387928 -0.9209786057 0.0097069843 0 1 0
82 1 2 0.0 -1.0435785055 -1.0410681963 -0.3122639954 0 1 0
83 1 6 0.0 -0.7514491677 -1.0578778982 -0.6310164332 0 1 0
84 1 2 0.0 -0.4606579244 -0.9940924048 -0.9612588286 0 1 0
85 1 5 0.0 -0.3044481575 -0.7967563272 -1.315480113 0 1 0
86 1 4 0.0 0.3588199615 -1.0060284138 -0.0025112114 0 1 0
87 1 2 0.0 0.2327788025 -1.3675513268 -0.3500267267 0 1 0
88 1 6 0.0 0.0947159231 1.2817026377 -0.6652823687 0 0 0
89 1 2 0.0 0.0653069317 0.9433892369 -0.9900159836 0 0 0
90 1 5 0.0 -0.0357474983 0.5956391096 -1.3100274801 0 0 0
91 1 4 0.0 0.4154971838 -0.0550397672 -0.852634728 0 0 0
92 1 2 0.0 0.5567012429 0.0945580825 -0.4359137714 0 0 0
93 1 6 0.0 0.8200380206 0.4702927172 -0.1789207757 0 0 0
94 1 2 0.0 0.9639055133 0.9000636935 -0.1419615149 0 0 0
95 1 5 0.0 1.1823195219 1.3662700653 -0.239395529 0 0 0
96 1 4 0.0 -0.158464238 -0.7907347679 0.3050799966 0 0 0
97 1 2 0.0 -0.3504147232 -0.3845218122 0.0937123969 0 0 0
98 1 6 0.0 -0.5097546577 0.0060952362 -0.165080443 0 0 0
99 1 2 0.0 -0.6003661752 0.3422127366 -0.4836319685 0 0 0
100 1 5 0.0 -0.7315241694 0.6296896935 -0.7690921426 0 0 0
101 1 4 0.0 -0.0834342465 -0.8377902508 -0.3436011374 0 0 0
102 1 2 0.0 0.1236863807 -0.4730051458 -0.1509566903 0 0 0
103 1 6 0.0 0.294770509 -0.1791390181 0.0175677948 0 0 0
104 1 2 0.0 0.3955113292 0.1685230434 0.1619029939 0 0 0
105 1 5 0.0 0.4391186237 0.5528544188 0.172493279 0 0 0
106 1 4 0.0 -1.2380708456 0.0597503111 -0.5007938147 0 0 0
107 1 2 0.0 -1.048594594 0.2052894831 -0.9634467363 0 0 0
108 1 6 0.0 -0.8420968652 0.3472569883 -1.2868338823 0 0 0
109 1 2 0.0 -0.5150542259 0.413395375 1.3115097284 0 0 -1
110 1 5 0.0 -0.1316017956 0.4289798141 1.0306041241 0 0 -1
111 1 4 0.0 0.7831072211 -0.6207683682 0.1709642857 -1 0 0
112 1 2 0.0 1.1435544491 -0.5690132976 -0.1373782903 -1 0 0
113 1 6 0.0 -1.3480226994 -0.5916976333 -0.4688374698 0 0 0
114 1 2 0.0 -1.1398428679 -0.4924825728 -0.8509040475 0 0 0
115 1 5 0.0 -1.1741714478 -0.2426954359 -1.1818044186 0 0 0
116 1 4 0.0 -1.2512975931 -1.0673185587 0.5365863442 -1 1 0
117 1 2 0.0 -0.8856618404 1.4609994888 0.4469857812 -1 0 0
118 1 6 0.0 -0.5848147273 1.0751533508 0.2924883068 -1 0 0
119 1 2 0.0 -0.2850407064 0.6185700297 0.071084179 -1 0 0
120 1 5 0.0 -0.0862875432 0.2464804202 -0.1164404005 -1 0 0
121 1 4 0.0 -1.1639246941 -0.5500661135 0.3223046958 1 0 0
122 1 2 0.0 -0.9745351076 -0.4492630363 -0.1089713722 1 0 0
123 1 6 0.0 -0.6260890365 -0.4755345285 -0.4473768771 1 0 0
124 1 2 0.0 -0.1570192277 -0.4485937059 -0.8584247828 1 0 0
125 1 5 0.0 0.2037565708 -0.420047313 -1.2660137415 1 0 0
126 1 4 0.0 0.1433832049 0.7919771075 -0.4949486554 0 0 0
127 1 2 0.0 -0.0930463076 0.5373119116 -0.7891206741 0 0 0
128 1 6 0.0 -0.2930940092 0.1871426105 -1.1000211239 0 0 0
129 1 2 0.0 -0.5961489677 -0.106570974 1.4560518265 0 0 -1
130 1 5 0.0 -0.8157933354 -0.3064498901 1.0653662682 0 0 -1
131 1 4 0.0 0.7855132222 -0.0827985406 -1.3370175362 0 0 0
132 1 2 0.0 0.8568083644 0.3138208687 -1.4424575567 0 0 0
133 1 6 0.0 0.7950563431 0.804281354 1.3435732126 0 0 -1
134 1 2 0.0 0.6211953163 1.2287784815 1.2269316912 0 0 -1
135 1 5 0.0 0.6769019961 -1.3275790215 1.2141717672 0 1 -1
136 1 4 0.0 -1.3728351593 -1.0319964886 -0.9157973528 1 1 0
137 1 2 0.0 -1.2178548574 -1.4333883524 -0.7592080832 1 1 0
138 1 6 0.0 -1.0893291235 1.035153389 -0.5286405683 1 0 0
139 1 2 0.0 -1.042499423 0.6596446037 -0.3325048983 1 0 0
140 1 5 0.0 -0.9780904055 0.3022183478 -0.1132043898 1 0 0
141 1 4 0.0 0.9628836513 -1.0777924061 0.0672545508 -1 0 0
142 1 2 0.0 0.7293981314 -1.3248920441 -0.2475060374 -1 0 0
143 1 6 0.0 0.6430876851 1.3702839613 -0.5897616744 -1 -1 0
144 1 2 0.0 0.5460391045 1.0471941233 -0.8938655853 -1 -1 0
145 1 5 0.0 0.4535009861 0.5883324146 -1.1424946785 -1 -1 0
146 1 4 0.0 -0.6773583889 0.9078094363 1.3691043854 0 -1 -1
147 1 2 0.0 -0.3345756829 0.8807403445 1.0501976013 0 -1 -1
148 1 6 0.0 0.0414484926 0.9704042077 0.6749306321 0 -1 -1
149 1 2 0.0 0.5859183073 1.0328428745 0.4635025859 0 -1 -1
150 1 5 0.0 1.025763154 1.1085919142 0.3459681571 0 -1 -1
151 1 4 0.0 0.7907049656 1.3632999659 -1.224386692 0 -1 1
152 1 2 0.0 0.3470888734 1.4567937851 -1.2701063156 0 -1 1
153 1 6 0.0 -0.1817063093 -1.3305746317 -1.3808145523 0 0 1
154 1 2 0.0 -0.5866549015 -1.1486270428 1.3272702694 0 0 0
155 1 5 0.0 -0.9878588319 -1.0844056606 1.1192266941 0 0 0
156 1 4 0.0 -0.7771000862 -0.5964770913 1.4512033463 1 0 -1
157 1 2 0.0 -1.2194225788 -0.7354778647 -1.3918879032 1 0 0
158 1 6 0.0 1.3678520918 -1.0936551094 -1.4040392637 0 0 0
159 1 2 0.0 1.2909463644 1.4181680679 1.3515344858 0 -1 -1
160 1 5 0.0 1.4022334814 1.0387554169 1.09220469 0 -1 -1

Bonds

1 1 1 2
2 12 1 125
3 2 2 3
4 7 3 121
5 1 4 5
6 11 4 146
7 12 4 100
8 2 5 6
9 1 7 8
10 12 7 140
11 2 8 9
12 1 10 11
13 12 10 95
14 2 11 12
15 1 13 14
16 2 14 15
17 8 15 160
18 7 15 71
19 1 16 17
20 12 16 85
21 11 16 156
22 2 17 18
23 8 18 145
24 7 18 91
25 1 19 20
26 2 20 21
27 8 21 75
28 7 21 131
29 1 22 23
30 2 23 24
31 8 24 70
32 8 24 115
33 1 25 26
34 11 25 106
35 2 26 27
36 7 27 141
37 7 27 116
38 1 28 29
39 11 28 111
40 2 29 30
41 1 31 32
42 2 32 33
43 1 34 35
44 11 34 76
45 2 35 36
46 1 37 38
47 2 38 39
48 8 39 110
49 1 40 41
50 11 40 96
51 2 41 42
52 8 42 105
53 7 42 126
54 1 43 44
55 11 43 101
56 2 44 45
57 1 46 47
58 2 47 48
59 8 48 130
60 1 49 50
61 2 50 51
62 1 52 53
63 2 53 54
64 1 55 56
65 11 55 66
66 11 55 136
67 2 56 57
68 8 57 65
69 8 57 135
70 1 58 59
71 11 58 61
72 11 58 151
73 2 59 60
74 5 61 62
75 4 62 63
76 4 63 64
77 3 64 65
78 5 66 67
79 4 67 68
80 4 68 69
81 3 69 70
82 5 71 72
83 4 72 73
84 4 73 74
85 3 74 75
86 5 76 77
87 4 77 78
88 4 78 79
89 3 79 80
90 5 81 82
91 4 82 83
92 4 83 84
93 3 84 85
94 5 86 87
95 4 87 88
96 4 88 89
97 3 89 90
98 5 91 92
99 4 92 93
100 4 93 94
101 3 94 95
102 5 96 97
103 4 97 98
104 4 98 99
105 3 99 100
106 5 101 102
107 4 102 103
108 4 103 104
109 3 104 105
110 5 106 107
111 4 107 108
112 4 108 109
113 3 109 110
114 5 111 112
115 4 112 113
116 4 113 114
117 3 114 115
118 5 116 117
119 4 117 118
120 4 118 119
121 3 119 120
122 5 121 122
123 4 122 123
124 4 123 124
125 3 124 125
126 5 126 127
127 4 127 128
128 4 128 129
129 3 129 130
130 5 131 132
131 4 132 133
132 4 133 134
133 3 134 135
134 5 136 137
135 4 137 138
136 4 138 139
137 3 139 140
138 5 141 142
139 4 142 143
140 4 143 144
141 3 144 145
142 5 146 147
143 4 147 148
144 4 148 149
145 3 149 150
146 5 151 152
147 4 152 153
148 4 153 154
149 3 154 155
150 5 156 157
151 4 157 158
152 4 158 159
153 3 159 160
