# LAMMPS data file written by Ovito 3.0.0-dev349
160 atoms
154 bonds
6 atom types
12 bond types
-1.437030196 1.437030196 xlo xhi
-1.437030196 1.437030196 ylo yhi
-1.437030196 1.437030196 zlo zhi

Atoms # full

1 1 1 0.0 0.4357816577 -0.4939093888 1.1590203047 0 0 0
2 1 2 0.0 0.8595027328 -0.4857734442 0.9563451409 0 0 0
3 1 3 0.0 1.3441470861 -0.4855740368 0.8805710673 0 0 0
4 1 1 0.0 -0.9490625858 0.8145672679 -1.41798985 1 0 1
5 1 2 0.0 -1.3860957623 0.7216594815 1.4143948555 1 0 0
6 1 3 0.0 1.1885772943 0.6765489578 1.2363638878 0 0 0
7 1 1 0.0 -0.7336039543 -0.0519926064 0.3573675752 1 -1 0
8 1 2 0.0 -0.5773568153 -0.0147912344 0.8276278973 1 -1 0
9 1 3 0.0 -0.2444281727 0.014568408 1.1634268761 1 -1 0
10 1 1 0.0 1.2558015585 -1.0962772369 -0.3595223427 -1 0 0
11 1 2 0.0 1.1097356081 -1.0347182751 -0.7016641498 -1 0 0
12 1 3 0.0 1.1127673388 -1.1587651968 -1.0932546854 -1 0 0
13 1 1 0.0 -1.1211736202 -0.0919637159 0.7741322517 0 0 0
14 1 2 0.0 -1.1820956469 0.3226717114 0.5430451632 0 0 0
15 1 3 0.0 -1.3298434019 0.7007559538 0.5611997843 0 0 0
16 1 1 0.0 -0.0647968724 -0.8150444627 1.3854602575 -1 0 0
17 1 2 0.0 -0.0419953614 -0.399307698 1.3740469217 -1 0 0
18 1 3 0.0 0.0851538032 -0.0288485866 -1.1930762529 -1 0 1
19 1 1 0.0 0.776022315 -0.6647323966 -0.3599966764 -1 0 1
20 1 2 0.0 0.6740072966 -0.7739073038 -0.7663136125 -1 0 1
21 1 3 0.0 0.8699375987 -0.7364798784 -1.2339562178 -1 0 1
22 1 1 0.0 0.843413949 0.7201632857 -0.7051112652 0 0 1
23 1 2 0.0 0.9714309573 0.5273602009 -1.1516907215 0 0 1
24 1 3 0.0 1.1824704409 0.2461987436 -1.3740092516 0 0 1
25 1 1 0.0 -1.3466271162 -0.0105892736 0.1700086892 1 0 1
26 1 2 0.0 1.251085043 -0.2806451321 0.4094660878 0 0 1
27 1 3 0.0 1.1645076275 -0.8202046752 0.5253568888 0 0 1
28 1 1 0.0 0.4193793833 -0.5621368289 0.5091625452 0 0 0
29 1 2 0.0 0.601121366 -0.9028680921 0.6649616957 0 0 0
30 1 3 0.0 0.6231672764 -1.3667421341 0.7016993761 0 0 0
31 1 1 0.0 -0.007343085 -0.7368418574 0.8659988642 0 1 0
32 1 2 0.0 0.0974970683 -0.2999138534 0.8005495071 0 1 0
33 1 3 0.0 -0.0350862443 0.1340092868 0.6271880865 0 1 0
34 1 1 0.0 0.2097525895 0.8351022601 1.1548453569 0 -1 -1
35 1 2 0.0 0.2243676186 0.359470576 1.1186897755 0 -1 -1
36 1 3 0.0 0.4670309126 0.0323580764 0.9323052764 0 -1 -1
37 1 1 0.0 0.8888968825 0.6688987017 0.7951140404 0 0 0
38 1 2 0.0 0.4319555163 0.7078413963 0.742862165 0 0 0
39 1 3 0.0 0.0555676073 0.6502014995 0.589163065 0 0 0
40 1 1 0.0 0.1678569913 -1.1429716349 0.4391373992 0 0 0
41 1 2 0.0 0.2513624728 1.4201067686 0.0864672139 0 -1 0
42 1 3 0.0 0.429299593 1.0667967796 -0.0534244068 0 -1 0
43 1 1 0.0 -0.3745910525 -1.2991123199 -0.483140111 0 0 0
44 1 2 0.0 -0.7439652085 -1.3841871023 -0.2223432362 0 0 0
45 1 3 0.0 -1.213999033 -1.3239306211 -0.1405708343 0 0 0
46 1 1 0.0 -0.3890346885 -1.115649581 0.4903980792 1 0 0
47 1 2 0.0 -0.7306309342 -0.9676352739 0.7972140312 1 0 0
48 1 3 0.0 -0.9497756958 -0.5849250555 1.0397129059 1 0 0
49 1 1 0.0 -0.4287324548 -0.5123164654 0.7443919182 0 1 0
50 1 2 0.0 -0.5937708616 -0.6118673682 0.3867563605 0 1 0
51 1 3 0.0 -0.7319464087 -0.8732280135 0.1411649883 0 1 0
52 1 1 0.0 -1.4182240963 -0.1228462681 1.2439502478 0 1 0
53 1 2 0.0 -1.2201776505 0.266143024 1.1949514151 0 1 0
54 1 3 0.0 -1.0550546646 0.6215154529 0.9575983882 0 1 0
55 1 1 0.0 -1.4038575888 -0.5917394757 -1.1100577116 0 0 1
56 1 2 0.0 1.3139197826 -0.6904078126 1.3678302765 -1 0 0
57 1 3 0.0 1.0928391218 -0.9937919974 1.0800558329 -1 0 0
58 1 1 0.0 -1.4243701696 1.1350756884 -1.1473333836 0 0 0
59 1 2 0.0 -1.1132074594 -1.4166904688 -1.1482075453 0 1 0
60 1 3 0.0 -0.7576566339 -1.2332788706 -1.0302649736 0 1 0
61 1 4 0.0 1.43163836 0.9401795268 -0.6870035529 0 0 0
62 1 2 0.0 -1.4162888527 0.9392753243 -0.2584739029 1 0 0
63 1 6 0.0 -1.3655194044 1.0520327091 0.1141226068 1 0 0
64 1 2 0.0 -1.3850678205 1.2640603781 0.4594377875 1 0 0
65 1 5 0.0 1.3502525091 -1.2938272953 0.7880253196 0 1 0
66 1 4 0.0 1.1317811012 -0.4141462445 -0.7558982968 -1 0 0
67 1 2 0.0 0.9329736829 -0.1633736789 -0.4285366833 -1 0 0
68 1 6 0.0 0.8761105537 0.0346645489 0.0552360751 -1 0 0
69 1 2 0.0 0.9562007189 0.1316036582 0.4683865905 -1 0 0
70 1 5 0.0 1.0464316607 0.146361053 0.9675944448 -1 0 0
71 1 4 0.0 -0.9546970725 1.0320221186 0.6251783967 0 -1 0
72 1 2 0.0 -0.5892336369 1.3351119757 0.6844832897 0 -1 0
73 1 6 0.0 -0.1488522589 -1.299882412 0.8993088007 0 0 0
74 1 2 0.0 0.1920738518 -1.2161033154 1.0296425819 0 0 0
75 1 5 0.0 0.5813199282 -0.9897024035 1.317802906 0 0 0
76 1 4 0.0 -0.1878495812 1.0384597778 -1.4355566502 0 0 0
77 1 2 0.0 -0.4595947266 1.0738195181 -1.0368891954 0 0 0
78 1 6 0.0 -0.4936625361 1.0833700895 -0.5986278057 0 0 0
79 1 2 0.0 -0.3347043395 1.1199061871 -0.224811703 0 0 0
80 1 5 0.0 -0.1644987464 1.1695033312 0.2950926721 0 0 0
81 1 4 0.0 1.3722302914 -0.8601441979 0.0834826827 -1 1 0
82 1 2 0.0 -1.1626205444 -0.7560430765 -0.1636187136 0 1 0
83 1 6 0.0 -0.8577746749 -0.8280988336 -0.3665207624 0 1 0
84 1 2 0.0 -0.5210962296 -0.8585931063 -0.7076913118 0 1 0
85 1 5 0.0 -0.2548971772 -0.8782958984 -1.0212870836 0 1 0
86 1 4 0.0 0.3666356504 -0.9414600134 -0.134501338 0 1 0
87 1 2 0.0 0.1867402345 -1.3167351484 -0.5389402509 0 1 0
88 1 6 0.0 0.035549026 1.1701486111 -0.757201314 0 0 0
89 1 2 0.0 -0.1037664339 0.7122530937 -1.0174998045 0 0 0
90 1 5 0.0 -0.1925911754 0.3899911642 -1.3600206375 0 0 0
91 1 4 0.0 0.2113782614 -0.05424615 -0.6948130727 0 0 0
92 1 2 0.0 0.4663045704 0.1829737574 -0.2938320935 0 0 0
93 1 6 0.0 0.7324506044 0.4807005227 -0.1787495017 0 0 0
94 1 2 0.0 0.9680016637 0.8684849143 -0.1206193566 0 0 0
95 1 5 0.0 1.1275191307 1.3066501617 -0.1480252594 0 0 0
96 1 4 0.0 -0.0534658097 -0.7022963166 0.3829505444 0 0 0
97 1 2 0.0 -0.2834507823 -0.2411899418 0.1927753985 0 0 0
98 1 6 0.0 -0.4677308202 0.096036382 -0.1148766205 0 0 0
99 1 2 0.0 -0.6424031854 0.3561555445 -0.4467834532 0 0 0
100 1 5 0.0 -0.7728610039 0.6613016725 -0.9618158937 0 0 0
101 1 4 0.0 -0.0899570957 -0.8881201148 -0.3154351413 0 0 0
102 1 2 0.0 0.1348205507 -0.4978681505 -0.0638345852 0 0 0
103 1 6 0.0 0.2958191037 -0.1984506994 0.1860589534 0 0 0
104 1 2 0.0 0.377720803 0.1879451275 0.3015442193 0 0 0
105 1 5 0.0 0.4448875189 0.6416689754 0.2239560187 0 0 0
106 1 4 0.0 -1.2574949265 0.1521612257 -0.3488019407 0 0 0
107 1 2 0.0 -1.0516314507 0.2294142097 -0.837044239 0 0 0
108 1 6 0.0 -0.8918907642 0.2734464407 -1.2565227747 0 0 0
109 1 2 0.0 -0.6627005935 0.3490697145 1.249661684 0 0 -1
110 1 5 0.0 -0.3338127136 0.4862946868 0.9164071679 0 0 -1
111 1 4 0.0 0.8219484687 -0.4834614098 0.1538264006 -1 0 0
112 1 2 0.0 1.2168695927 -0.4130057395 -0.1203946844 -1 0 0
113 1 6 0.0 -1.3472622633 -0.3405383825 -0.3603643179 0 0 0
114 1 2 0.0 -1.2469654083 -0.2395408303 -0.71410954 0 0 0
115 1 5 0.0 1.4310852289 -0.0912044272 -1.1005524397 -1 0 0
116 1 4 0.0 -1.2230124474 -1.0678014755 0.4656643569 -1 1 0
117 1 2 0.0 -0.940549016 -1.3681329489 0.3237218857 -1 1 0
118 1 6 0.0 -0.7094848752 1.1127445698 0.15770863 -1 0 0
119 1 2 0.0 -0.4437627196 0.7081029415 0.127179563 -1 0 0
120 1 5 0.0 -0.1011763141 0.4514391124 0.13245821 -1 0 0
121 1 4 0.0 -1.1484078169 -0.5182901025 0.4340782762 1 0 0
122 1 2 0.0 -0.7611345649 -0.3899945319 -0.0793571547 1 0 0
123 1 6 0.0 -0.4008734822 -0.4307318628 -0.3748674691 1 0 0
124 1 2 0.0 -0.0215819608 -0.5064443946 -0.7433703542 1 0 0
125 1 5 0.0 0.2961274683 -0.4917216003 -1.1092479229 1 0 0
126 1 4 0.0 0.1554779559 0.8234431148 -0.3663384318 0 0 0
127 1 2 0.0 -0.1317223012 0.4840529263 -0.5090521574 0 0 0
128 1 6 0.0 -0.3214829862 0.213606745 -0.8771850467 0 0 0
129 1 2 0.0 -0.4527388513 -0.0141393747 -1.2137584686 0 0 0
130 1 5 0.0 -0.6216131449 -0.2833692431 1.3658723831 0 0 -1
131 1 4 0.0 0.8708492517 -0.2194249034 -1.3453512192 0 0 0
132 1 2 0.0 0.6957374215 0.2089188993 1.3932117224 0 0 -1
133 1 6 0.0 0.658603251 0.6616811156 1.3259193897 0 0 -1
134 1 2 0.0 0.6712101102 1.079855442 1.2652976513 0 0 -1
135 1 5 0.0 0.8017963767 -1.4072041512 1.1885137558 0 1 -1
136 1 4 0.0 -1.2388323545 -0.9938560128 -0.8296467662 1 1 0
137 1 2 0.0 -1.0616368055 -1.3416750431 -0.6331755519 1 1 0
138 1 6 0.0 -0.9838279486 1.1095794439 -0.4470141232 1 0 0
139 1 2 0.0 -0.9221701622 0.7075967193 -0.1708436906 1 0 0
140 1 5 0.0 -0.8886350989 0.3515242338 0.0772254616 1 0 0
141 1 4 0.0 0.8563038111 -1.045039773 0.0593578257 -1 0 0
142 1 2 0.0 0.7541890144 -1.2873395681 -0.3773501217 -1 0 0
143 1 6 0.0 0.6053436995 1.267899394 -0.7309865355 -1 -1 0
144 1 2 0.0 0.5003938079 0.8552052975 -1.0400494337 -1 -1 0
145 1 5 0.0 0.32171911 0.4612722993 -1.2285647392 -1 -1 0
146 1 4 0.0 -0.6124938726 0.9395107031 1.1091223955 0 -1 -1
147 1 2 0.0 -0.219994247 1.0290598869 0.8878643513 0 -1 -1
148 1 6 0.0 0.2074564844 1.147633791 0.6770762205 0 -1 -1
149 1 2 0.0 0.5911489725 1.0919390917 0.4604674876 0 -1 -1
150 1 5 0.0 1.038267374 1.1612108946 0.3331494927 0 -1 -1
151 1 4 0.0 0.9412967563 1.2592597008 -1.1704826355 0 -1 1
152 1 2 0.0 0.4910349846 1.359728694 -1.2170554399 0 -1 1
153 1 6 0.0 0.0523629934 -1.3777881861 -1.2711780071 0 0 1
154 1 2 0.0 -0.3851688802 -1.3455849886 1.4226738214 0 0 0
155 1 5 0.0 -0.7654138207 1.3996204138 1.234708786 0 -1 0
156 1 4 0.0 -0.5820989609 -0.8295519352 1.2897920609 1 0 -1
157 1 2 0.0 -1.0790903568 -0.9698919058 1.3649073839 1 0 -1
158 1 6 0.0 -1.4058959484 -1.3423178196 1.3082616329 1 0 -1
159 1 2 0.0 1.3610047102 1.225259304 1.2055085897 0 -1 -1
160 1 5 0.0 1.4341080189 0.9782626629 0.943770349 0 -1 -1

Bonds

1 1 1 2
2 12 1 125
3 2 2 3
4 7 3 121
5 1 4 5
6 11 4 146
7 12 4 100
8 2 5 6
9 1 7 8
10 12 7 140
11 2 8 9
12 8 9 90
13 1 10 11
14 12 10 95
15 2 11 12
16 1 13 14
17 2 14 15
18 8 15 160
19 7 15 71
20 1 16 17
21 12 16 85
22 11 16 156
23 2 17 18
24 8 18 145
25 7 18 91
26 1 19 20
27 2 20 21
28 8 21 75
29 7 21 131
30 1 22 23
31 2 23 24
32 8 24 70
33 8 24 115
34 1 25 26
35 11 25 106
36 2 26 27
37 7 27 141
38 7 27 116
39 1 28 29
40 11 28 111
41 2 29 30
42 1 31 32
43 2 32 33
44 1 34 35
45 11 34 76
46 2 35 36
47 1 37 38
48 2 38 39
49 8 39 110
50 1 40 41
51 11 40 96
52 2 41 42
53 8 42 105
54 7 42 126
55 1 43 44
56 11 43 101
57 2 44 45
58 1 46 47
59 2 47 48
60 8 48 130
61 1 49 50
62 2 50 51
63 1 52 53
64 2 53 54
65 1 55 56
66 11 55 66
67 11 55 136
68 2 56 57
69 8 57 65
70 8 57 135
71 1 58 59
72 11 58 61
73 11 58 151
74 2 59 60
75 5 61 62
76 4 62 63
77 4 63 64
78 3 64 65
79 5 66 67
80 4 67 68
81 4 68 69
82 3 69 70
83 5 71 72
84 4 72 73
85 4 73 74
86 3 74 75
87 5 76 77
88 4 77 78
89 4 78 79
90 3 79 80
91 5 81 82
92 4 82 83
93 4 83 84
94 3 84 85
95 5 86 87
96 4 87 88
97 4 88 89
98 3 89 90
99 5 91 92
100 4 92 93
101 4 93 94
102 3 94 95
103 5 96 97
104 4 97 98
105 4 98 99
106 3 99 100
107 5 101 102
108 4 102 103
109 4 103 104
110 3 104 105
111 5 106 107
112 4 107 108
113 4 108 109
114 3 109 110
115 5 111 112
116 4 112 113
117 4 113 114
118 3 114 115
119 5 116 117
120 4 117 118
121 4 118 119
122 3 119 120
123 5 121 122
124 4 122 123
125 4 123 124
126 3 124 125
127 5 126 127
128 4 127 128
129 4 128 129
130 3 129 130
131 5 131 132
132 4 132 133
133 4 133 134
134 3 134 135
135 5 136 137
136 4 137 138
137 4 138 139
138 3 139 140
139 5 141 142
140 4 142 143
141 4 143 144
142 3 144 145
143 5 146 147
144 4 147 148
145 4 148 149
146 3 149 150
147 5 151 152
148 4 152 153
149 4 153 154
150 3 154 155
151 5 156 157
152 4 157 158
153 4 158 159
154 3 159 160
