# LAMMPS data file written by Ovito 3.0.0-dev349
160 atoms
156 bonds
6 atom types
12 bond types
-1.457438946 1.457438946 xlo xhi
-1.457438946 1.457438946 ylo yhi
-1.457438946 1.457438946 zlo zhi

Atoms # full

1 1 1 0.0 0.499728322 -0.4041289985 1.2430509329 0 0 0
2 1 2 0.0 0.9778700471 -0.3393080831 0.9994546175 0 0 0
3 1 3 0.0 1.398881793 -0.5486170053 0.6864822507 0 0 0
4 1 1 0.0 -0.9805529118 1.0089673996 -1.135433197 1 0 1
5 1 2 0.0 -1.3451032639 0.9082570076 -1.2765593529 1 0 1
6 1 3 0.0 1.1466246843 0.9925162792 1.4091420174 0 0 0
7 1 1 0.0 -0.7843347788 0.0149032557 0.4256514013 1 -1 0
8 1 2 0.0 -0.451778084 0.0373731405 0.7455431819 1 -1 0
9 1 3 0.0 -0.3341529071 -0.093221277 1.134955883 1 -1 0
10 1 1 0.0 1.4367923737 -1.0953948498 -0.4855931997 -1 0 0
11 1 2 0.0 1.1626837254 -1.070707202 -0.8900089264 -1 0 0
12 1 3 0.0 1.1573987007 -1.1209623814 -1.3672059774 -1 0 0
13 1 1 0.0 -1.0036001205 -0.2239772528 0.8910272717 0 0 0
14 1 2 0.0 -1.291643858 0.065140903 0.6692552567 0 0 0
15 1 3 0.0 -1.2743557692 0.3914124668 0.5182076693 0 0 0
16 1 1 0.0 -0.4633951783 -0.3908585608 -1.3744648695 -1 0 1
17 1 2 0.0 -3.140253e-04 -0.3494199216 -1.4312968254 -1 0 1
18 1 3 0.0 0.3475016654 -0.0787953809 -1.2867054939 -1 0 1
19 1 1 0.0 0.4952306151 -0.8914932013 -0.4103486836 -1 0 1
20 1 2 0.0 0.7200980783 -0.6693945527 -0.7536100149 -1 0 1
21 1 3 0.0 0.8196538687 -0.6795547605 -1.1645239592 -1 0 1
22 1 1 0.0 0.8205025196 0.4202279747 -0.9546201229 0 0 1
23 1 2 0.0 1.1821591854 0.5201954246 -1.2389870882 0 0 1
24 1 3 0.0 -1.4520281553 0.3654740453 1.4374587536 1 0 0
25 1 1 0.0 1.4038527012 0.1343304366 0.1017501056 0 0 1
26 1 2 0.0 1.2783644199 -0.2755103707 0.2312899083 0 0 1
27 1 3 0.0 1.3294632435 -0.7885511518 0.227821663 0 0 1
28 1 1 0.0 0.5512368083 -0.8756373525 0.1901242584 0 0 0
29 1 2 0.0 0.5987333655 -0.9393261075 0.5108622909 0 0 0
30 1 3 0.0 0.4544963539 -0.8287872076 0.8579523563 0 0 0
31 1 1 0.0 -0.0869504213 -0.8439397812 1.2143294811 0 1 0
32 1 2 0.0 0.0326668136 -0.4552793205 0.9751783013 0 1 0
33 1 3 0.0 0.0266283508 -0.1894360185 0.5530930758 0 1 0
34 1 1 0.0 0.1053177416 0.543289721 1.1754091978 0 -1 -1
35 1 2 0.0 0.2685764432 0.0774815232 1.0389931202 0 -1 -1
36 1 3 0.0 0.5115526319 -0.2526342273 0.7774279714 0 -1 -1
37 1 1 0.0 0.8080716133 0.6068917513 0.6388912201 0 0 0
38 1 2 0.0 0.4529969096 0.483328104 0.7436851859 0 0 0
39 1 3 0.0 -0.0433424786 0.4565369189 0.6187272072 0 0 0
40 1 1 0.0 0.0261607189 -0.9480676651 0.6250398755 0 0 0
41 1 2 0.0 0.2309965044 -1.3191380501 0.4751921296 0 0 0
42 1 3 0.0 0.2306545824 1.1754386425 0.2347219884 0 -1 0
43 1 1 0.0 -0.4096940458 -1.0394450426 -0.4207257032 0 0 0
44 1 2 0.0 -0.7304339409 -1.3123655319 -0.1340691596 0 0 0
45 1 3 0.0 -1.0765777826 1.3285626173 0.019262366 0 -1 0
46 1 1 0.0 -0.4787401855 -1.0604915619 0.7738622427 1 0 0
47 1 2 0.0 -0.8936167955 -0.973525703 0.8649606109 1 0 0
48 1 3 0.0 -1.2151482105 -0.6570261121 1.1316791773 1 0 0
49 1 1 0.0 -0.4486053288 -0.5727818012 0.9498384595 0 1 0
50 1 2 0.0 -0.6747288704 -0.6007660031 0.5521078706 0 1 0
51 1 3 0.0 -0.6770112514 -0.8411497474 0.1543951184 0 1 0
52 1 1 0.0 -1.4560227394 -0.1469014287 1.1857087612 0 1 0
53 1 2 0.0 -1.1052391529 0.2841685712 1.0755064487 0 1 0
54 1 3 0.0 -1.0104870796 0.8299943209 1.0741170645 0 1 0
55 1 1 0.0 1.4339107275 -0.4858172238 -1.2120200396 -1 0 1
56 1 2 0.0 1.2307499647 -0.6102064848 1.3552796841 -1 0 0
57 1 3 0.0 1.1314508915 -0.9724423885 1.0082001686 -1 0 0
58 1 1 0.0 1.2322269678 1.3463653326 -1.1016269922 -1 0 0
59 1 2 0.0 -1.3266950846 -1.4093900919 -1.2515060902 0 1 0
60 1 3 0.0 -0.8074790239 -1.3840911388 -1.2415089607 0 1 0
61 1 4 0.0 1.3626563549 1.0470575094 -0.7334011793 0 0 0
62 1 2 0.0 -1.3961750269 0.8649951816 -0.2463033944 1 0 0
63 1 6 0.0 -1.3207956553 0.9007492065 0.1657926738 1 0 0
64 1 2 0.0 -1.2995126247 1.2662249804 0.5158023238 1 0 0
65 1 5 0.0 1.4459196329 -1.2503376007 0.7859995961 0 1 0
66 1 4 0.0 1.1669201851 -0.1769576669 -0.86634624 -1 0 0
67 1 2 0.0 1.0066524744 -0.088384971 -0.4728501439 -1 0 0
68 1 6 0.0 0.8984277844 0.0411390439 -0.0291268378 -1 0 0
69 1 2 0.0 0.9517925978 0.123584941 0.521555841 -1 0 0
70 1 5 0.0 1.1652798653 0.2240965366 0.9382978082 -1 0 0
71 1 4 0.0 -0.822923243 0.7585437894 0.6013613343 0 -1 0
72 1 2 0.0 -0.4781494141 1.0960814953 0.7704088092 0 -1 0
73 1 6 0.0 -0.1169080585 1.4253515005 0.865222156 0 -1 0
74 1 2 0.0 0.2192676961 -1.2427903414 1.0734804869 0 0 0
75 1 5 0.0 0.5348876715 -0.9983360171 1.4154727459 0 0 0
76 1 4 0.0 -0.0360439308 0.8423253298 -1.300109148 0 0 0
77 1 2 0.0 0.0025401546 1.1469343901 -0.902336061 0 0 0
78 1 6 0.0 -0.0405124091 1.3817219734 -0.5305274129 0 0 0
79 1 2 0.0 -0.0679086298 -1.3519978523 -0.0246370565 0 1 0
80 1 5 0.0 -0.3119946122 -1.320869565 0.3659368157 0 1 0
81 1 4 0.0 1.4046336412 -1.3180146217 0.1980719268 -1 1 0
82 1 2 0.0 -1.2009766102 -1.0337247849 -0.0773833916 0 1 0
83 1 6 0.0 -0.9624698758 -0.8509052396 -0.3066007495 0 1 0
84 1 2 0.0 -0.7359475493 -0.6666838527 -0.5937460065 0 1 0
85 1 5 0.0 -0.5829762816 -0.5099756122 -0.9170156717 0 1 0
86 1 4 0.0 0.5204601288 -1.3606652021 -0.015426226 0 1 0
87 1 2 0.0 0.4393983781 1.1227142811 -0.2659868598 0 0 0
88 1 6 0.0 0.2106370181 0.7282851934 -0.6203078032 0 0 0
89 1 2 0.0 0.0177081209 0.3701787293 -0.9674119949 0 0 0
90 1 5 0.0 -0.1513218731 0.1643019617 -1.3914418221 0 0 0
91 1 4 0.0 0.4280301034 -0.105451256 -0.7686246037 0 0 0
92 1 2 0.0 0.5500332713 0.1136008874 -0.4011948407 0 0 0
93 1 6 0.0 0.7522730827 0.5425700545 -0.2247400582 0 0 0
94 1 2 0.0 0.9853618741 0.9965923429 -0.197746858 0 0 0
95 1 5 0.0 1.28128016 1.3960268497 -0.2744878232 0 0 0
96 1 4 0.0 -0.185632363 -0.5881896615 0.359077692 0 0 0
97 1 2 0.0 -0.365929842 -0.2544294894 0.1407589316 0 0 0
98 1 6 0.0 -0.4660237134 0.0733377188 -0.1089998856 0 0 0
99 1 2 0.0 -0.6733871698 0.3886142373 -0.3739996254 0 0 0
100 1 5 0.0 -0.8300930858 0.7386053801 -0.715180099 0 0 0
101 1 4 0.0 -0.0092604058 -0.791169107 -0.1767380685 0 0 0
102 1 2 0.0 0.2215649337 -0.4594502747 -0.0337393098 0 0 0
103 1 6 0.0 0.3642794192 -0.1083296463 0.163852945 0 0 0
104 1 2 0.0 0.4763776362 0.2910057604 0.235787034 0 0 0
105 1 5 0.0 0.4422939718 0.6766986847 0.27516976 0 0 0
106 1 4 0.0 1.4180114269 0.2825394571 -0.4936588109 -1 0 0
107 1 2 0.0 -1.2763111591 0.4202666283 -0.8915687799 0 0 0
108 1 6 0.0 -0.9717171192 0.485357672 -1.2579308748 0 0 0
109 1 2 0.0 -0.6607842445 0.4942505956 1.3114778996 0 0 -1
110 1 5 0.0 -0.4083725214 0.4918566048 1.0307914019 0 0 -1
111 1 4 0.0 0.9035918713 -0.5827493072 -0.0470460542 -1 0 0
112 1 2 0.0 1.2443875074 -0.5121212006 -0.2233186215 -1 0 0
113 1 6 0.0 -1.3541095257 -0.4490719438 -0.5136226416 0 0 0
114 1 2 0.0 -1.2105203867 -0.2387659401 -0.8451789021 0 0 0
115 1 5 0.0 -1.2739335299 0.0036088647 -1.2015635967 0 0 0
116 1 4 0.0 -1.155415535 -0.9933679104 0.418672204 -1 1 0
117 1 2 0.0 -0.8294537067 -1.3449869156 0.4045859575 -1 1 0
118 1 6 0.0 -0.6297677755 1.1706283092 0.268096447 -1 0 0
119 1 2 0.0 -0.4404003322 0.8118947148 0.1722133756 -1 0 0
120 1 5 0.0 -0.0794032216 0.4331681132 -0.0094778389 -1 0 0
121 1 4 0.0 -1.1489208937 -0.4487957358 0.2842460275 1 0 0
122 1 2 0.0 -0.7978906631 -0.3772634864 -0.152959317 1 0 0
123 1 6 0.0 -0.3431138992 -0.4322591126 -0.3966439962 1 0 0
124 1 2 0.0 -0.0209751744 -0.4659866393 -0.7798666954 1 0 0
125 1 5 0.0 0.3179073632 -0.5658877492 -1.1410838366 1 0 0
126 1 4 0.0 -0.1074878126 1.0319501162 -0.1486246586 0 0 0
127 1 2 0.0 -0.2967576087 0.7514775991 -0.5479326248 0 0 0
128 1 6 0.0 -0.4954015613 0.3538717628 -0.8778128624 0 0 0
129 1 2 0.0 -0.7361573577 -0.02110973 -1.1170719862 0 0 0
130 1 5 0.0 -0.9784075618 -0.3537687063 -1.415656805 0 0 0
131 1 4 0.0 0.8819035292 -0.1781215072 -1.2905211449 0 0 0
132 1 2 0.0 0.8412988186 0.277805239 1.4133940935 0 0 -1
133 1 6 0.0 0.7693317533 0.6652396917 1.2341413498 0 0 -1
134 1 2 0.0 0.6526889205 1.1296418905 1.1410315037 0 0 -1
135 1 5 0.0 0.7648948431 -1.3756777048 1.0957455635 0 1 -1
136 1 4 0.0 -1.2628982067 -0.8793452382 -1.0085624456 1 1 0
137 1 2 0.0 -1.0491932631 -1.2537523508 -0.7358437777 1 1 0
138 1 6 0.0 -0.9685979486 1.2787892818 -0.4928679168 1 0 0
139 1 2 0.0 -0.8833902478 0.8709325194 -0.1475595832 1 0 0
140 1 5 0.0 -0.8453717232 0.4874094725 0.1427855194 1 0 0
141 1 4 0.0 1.0306955576 -1.0972143412 -0.0817457065 -1 0 0
142 1 2 0.0 0.8204478025 -1.4448262453 -0.4706622064 -1 0 0
143 1 6 0.0 0.6598471999 1.1615548134 -0.7708332539 -1 -1 0
144 1 2 0.0 0.509141624 0.879881084 -1.1366764307 -1 -1 0
145 1 5 0.0 0.3971036077 0.4428210258 -1.3295937777 -1 -1 0
146 1 4 0.0 -0.5563531518 0.9839003086 1.4215444326 0 -1 -1
147 1 2 0.0 -0.1555731595 0.9825533628 1.1234745979 0 -1 -1
148 1 6 0.0 0.2621853054 1.0590173006 0.8632135391 0 -1 -1
149 1 2 0.0 0.6350530386 1.1068470478 0.5889844894 0 -1 -1
150 1 5 0.0 1.0787670612 1.1182875633 0.3436622024 0 -1 -1
151 1 4 0.0 0.7444470525 1.343791604 -1.2710593939 0 -1 1
152 1 2 0.0 0.2996702492 -1.4569497108 -1.3940960169 0 0 1
153 1 6 0.0 -0.1891906708 1.4263288975 1.4254341125 0 -1 0
154 1 2 0.0 -0.6404354572 1.4335336685 1.1609117985 0 -1 0
155 1 5 0.0 -0.9943708181 1.3357704878 0.9196721315 0 -1 0
156 1 4 0.0 -0.7284060121 -0.7848827243 1.3991056681 1 0 -1
157 1 2 0.0 -1.1089421511 -1.1420658827 1.3347990513 1 0 -1
158 1 6 0.0 -1.4545091391 1.3880422115 1.1920497417 1 -1 -1
159 1 2 0.0 1.3917229176 1.0797003508 0.9945498705 0 -1 -1
160 1 5 0.0 1.4008891582 0.7295956016 0.819560945 0 -1 -1

Bonds

1 1 1 2
2 12 1 125
3 2 2 3
4 7 3 121
5 1 4 5
6 11 4 146
7 12 4 100
8 2 5 6
9 1 7 8
10 12 7 140
11 2 8 9
12 8 9 90
13 1 10 11
14 12 10 95
15 2 11 12
16 1 13 14
17 2 14 15
18 8 15 160
19 7 15 71
20 1 16 17
21 12 16 85
22 11 16 156
23 2 17 18
24 8 18 145
25 7 18 91
26 1 19 20
27 2 20 21
28 8 21 75
29 7 21 131
30 1 22 23
31 2 23 24
32 8 24 70
33 8 24 115
34 1 25 26
35 11 25 106
36 2 26 27
37 7 27 141
38 7 27 116
39 1 28 29
40 11 28 111
41 11 28 86
42 2 29 30
43 1 31 32
44 2 32 33
45 1 34 35
46 11 34 76
47 2 35 36
48 1 37 38
49 2 38 39
50 8 39 110
51 1 40 41
52 11 40 96
53 2 41 42
54 8 42 105
55 7 42 126
56 1 43 44
57 11 43 101
58 2 44 45
59 1 46 47
60 12 46 80
61 2 47 48
62 8 48 130
63 1 49 50
64 2 50 51
65 1 52 53
66 2 53 54
67 1 55 56
68 11 55 66
69 11 55 136
70 2 56 57
71 8 57 65
72 8 57 135
73 1 58 59
74 11 58 61
75 11 58 151
76 2 59 60
77 5 61 62
78 4 62 63
79 4 63 64
80 3 64 65
81 5 66 67
82 4 67 68
83 4 68 69
84 3 69 70
85 5 71 72
86 4 72 73
87 4 73 74
88 3 74 75
89 5 76 77
90 4 77 78
91 4 78 79
92 3 79 80
93 5 81 82
94 4 82 83
95 4 83 84
96 3 84 85
97 5 86 87
98 4 87 88
99 4 88 89
100 3 89 90
101 5 91 92
102 4 92 93
103 4 93 94
104 3 94 95
105 5 96 97
106 4 97 98
107 4 98 99
108 3 99 100
109 5 101 102
110 4 102 103
111 4 103 104
112 3 104 105
113 5 106 107
114 4 107 108
115 4 108 109
116 3 109 110
117 5 111 112
118 4 112 113
119 4 113 114
120 3 114 115
121 5 116 117
122 4 117 118
123 4 118 119
124 3 119 120
125 5 121 122
126 4 122 123
127 4 123 124
128 3 124 125
129 5 126 127
130 4 127 128
131 4 128 129
132 3 129 130
133 5 131 132
134 4 132 133
135 4 133 134
136 3 134 135
137 5 136 137
138 4 137 138
139 4 138 139
140 3 139 140
141 5 141 142
142 4 142 143
143 4 143 144
144 3 144 145
145 5 146 147
146 4 147 148
147 4 148 149
148 3 149 150
149 5 151 152
150 4 152 153
151 4 153 154
152 3 154 155
153 5 156 157
154 4 157 158
155 4 158 159
156 3 159 160
