# LAMMPS data file written by Ovito 3.0.0-dev349
160 atoms
156 bonds
6 atom types
12 bond types
-1.451259732 1.451259732 xlo xhi
-1.451259732 1.451259732 ylo yhi
-1.451259732 1.451259732 zlo zhi

Atoms # full

1 1 1 0.0 0.6194964647 -0.3505518138 1.0087999105 0 0 0
2 1 2 0.0 1.1292687654 -0.3129419386 0.8552119732 0 0 0
3 1 3 0.0 -1.2755633593 -0.508140862 0.5844939351 1 0 0
4 1 1 0.0 -0.884658277 0.9116578698 -1.2722715139 1 0 1
5 1 2 0.0 -1.2492876053 0.9316679835 1.3681756258 1 0 0
6 1 3 0.0 1.1730942726 0.9299795032 1.3266181946 0 0 0
7 1 1 0.0 -0.2797214985 0.2000201046 0.3112673461 1 -1 0
8 1 2 0.0 -0.44759354 0.0947925374 0.7589074373 1 -1 0
9 1 3 0.0 -0.4892240763 0.0499993414 1.2196317911 1 -1 0
10 1 1 0.0 1.3499395847 -1.2690067291 -0.5082070827 -1 0 0
11 1 2 0.0 1.058762908 -1.1830742359 -0.9087839127 -1 0 0
12 1 3 0.0 0.9707125425 -1.2056463957 -1.4354083538 -1 0 0
13 1 1 0.0 -0.9106546044 -0.1778669506 0.861838758 0 0 0
14 1 2 0.0 -0.9325028062 0.0324425213 0.4776376486 0 0 0
15 1 3 0.0 -1.0481466055 0.395121932 0.2881566286 0 0 0
16 1 1 0.0 -0.631544888 -0.5716796517 -1.150582552 -1 0 1
17 1 2 0.0 -0.2706622481 -0.342264235 -1.3154073954 -1 0 1
18 1 3 0.0 0.1663905233 -0.109716244 -1.1934931278 -1 0 1
19 1 1 0.0 0.2977755964 -0.9130491018 -0.3780462742 -1 0 1
20 1 2 0.0 0.6330882907 -0.9123684764 -0.7458017468 -1 0 1
21 1 3 0.0 0.7524613738 -0.8397248387 -1.1732149124 -1 0 1
22 1 1 0.0 1.0258364677 0.8138576746 -0.7038975954 0 0 1
23 1 2 0.0 0.9864456058 0.6208910942 -1.088775754 0 0 1
24 1 3 0.0 1.2423785925 0.4165339172 1.422018528 0 0 0
25 1 1 0.0 -1.43872118 0.0349645726 0.2255134284 1 0 1
26 1 2 0.0 1.2286006212 -0.3295935988 0.2776275575 0 0 1
27 1 3 0.0 1.2911758423 -0.8300069571 0.3006393611 0 0 1
28 1 1 0.0 0.6286061406 -0.8394002914 0.1463690996 0 0 0
29 1 2 0.0 0.5816463828 -0.7731761932 0.5855296254 0 0 0
30 1 3 0.0 0.5257379413 -0.8486114144 0.9269844294 0 0 0
31 1 1 0.0 -0.1761946976 -0.9144727588 1.2061923742 0 1 0
32 1 2 0.0 -0.1384863257 -0.453371793 0.9942320585 0 1 0
33 1 3 0.0 0.1100879833 -0.1897603124 0.7159712315 0 1 0
34 1 1 0.0 -0.0422302596 0.4299762845 1.2169474363 0 -1 -1
35 1 2 0.0 0.3174900413 0.1601696908 1.0735554695 0 -1 -1
36 1 3 0.0 0.7187643647 0.1029568836 0.8262423277 0 -1 -1
37 1 1 0.0 0.866371572 0.8179121614 0.6823284626 0 0 0
38 1 2 0.0 0.4504864812 0.5779228806 0.7598880529 0 0 0
39 1 3 0.0 -0.0431728587 0.6019169092 0.6345846653 0 0 0
40 1 1 0.0 0.0516038612 -0.8201955557 0.6573032141 0 0 0
41 1 2 0.0 0.2405674756 -1.2517843246 0.4821200073 0 0 0
42 1 3 0.0 0.1916031092 1.2437077761 0.2027393728 0 -1 0
43 1 1 0.0 -0.4856099188 -0.939106226 -0.3282607794 0 0 0
44 1 2 0.0 -0.7022038698 -1.212860465 -0.134494558 0 0 0
45 1 3 0.0 -1.0287742615 1.4376797676 -0.097774215 0 -1 0
46 1 1 0.0 -0.446646601 -1.0918889046 0.7714241147 1 0 0
47 1 2 0.0 -0.9391351342 -0.9666281939 0.919146657 1 0 0
48 1 3 0.0 -1.2331340313 -0.6085310578 1.1096850634 1 0 0
49 1 1 0.0 -0.6216561794 -0.5634071231 1.017185688 0 1 0
50 1 2 0.0 -0.761952877 -0.6636711955 0.556398809 0 1 0
51 1 3 0.0 -0.6554504633 -0.791833818 0.1601220071 0 1 0
52 1 1 0.0 -1.4288662672 0.0219322126 1.0503163338 0 1 0
53 1 2 0.0 -1.093693614 0.3527761698 0.9222745299 0 1 0
54 1 3 0.0 -0.9796225429 0.9103955626 0.8907494545 0 1 0
55 1 1 0.0 1.2632000446 -0.649274528 -1.1292381287 -1 0 1
56 1 2 0.0 1.1524902582 -0.6550818086 1.3612687588 -1 0 0
57 1 3 0.0 1.0894789696 -0.889414072 0.964032352 -1 0 0
58 1 1 0.0 1.4099607468 1.0983864069 -1.0638914108 -1 0 0
59 1 2 0.0 -1.19569695 1.361123085 -1.242364645 0 0 0
60 1 3 0.0 -0.7114802599 -1.328948617 -1.1925356388 0 1 0
61 1 4 0.0 -1.3777388334 0.9833508134 -0.5722202063 1 0 0
62 1 2 0.0 -1.2219436169 0.976131022 -0.2004197389 1 0 0
63 1 6 0.0 -1.1263456345 1.1511873007 0.2686594725 1 0 0
64 1 2 0.0 -1.1902993917 1.432892561 0.6331397891 1 0 0
65 1 5 0.0 -1.4139705896 -1.1534901857 0.7859854698 1 1 0
66 1 4 0.0 0.9662062526 -0.3882957995 -0.757689774 -1 0 0
67 1 2 0.0 0.917136848 -0.139025867 -0.4191498458 -1 0 0
68 1 6 0.0 0.9715353847 0.1043542027 0.0144665893 -1 0 0
69 1 2 0.0 1.0646947622 0.3018643856 0.4737888873 -1 0 0
70 1 5 0.0 1.1251189709 0.436460346 0.9059455395 -1 0 0
71 1 4 0.0 -0.7101048231 0.716299355 0.4223307669 0 -1 0
72 1 2 0.0 -0.4315805733 1.0920035839 0.6828010678 0 -1 0
73 1 6 0.0 -0.1081698164 1.4270091057 0.8695015311 0 -1 0
74 1 2 0.0 0.1623577923 -1.2850366831 1.1073570251 0 0 0
75 1 5 0.0 0.4393748641 -1.0767844915 1.3869539499 0 0 0
76 1 4 0.0 -0.0225341283 0.7291429043 -1.2590972185 0 0 0
77 1 2 0.0 0.0483040623 1.1181886196 -0.9546726346 0 0 0
78 1 6 0.0 0.0523523837 -1.431271553 -0.5810198188 0 1 0
79 1 2 0.0 -0.0356438123 -1.2219017744 -0.1477098614 0 1 0
80 1 5 0.0 -0.2362451255 -1.1213042736 0.253587395 0 1 0
81 1 4 0.0 1.1290807724 1.3492636681 0.6171835661 -1 0 0
82 1 2 0.0 1.3703428507 -1.3565891981 0.2355879545 -1 1 0
83 1 6 0.0 -1.3782740831 -1.0903627872 -0.0699709207 0 1 0
84 1 2 0.0 -1.0913493633 -0.8615544438 -0.4001682699 0 1 0
85 1 5 0.0 -0.8123063445 -0.679469347 -0.690930903 0 1 0
86 1 4 0.0 0.5196344852 -1.3078910112 -0.0861641839 0 1 0
87 1 2 0.0 0.4655058384 1.1301994324 -0.2819233239 0 0 0
88 1 6 0.0 0.2764417231 0.6966485381 -0.5452440977 0 0 0
89 1 2 0.0 0.0222991202 0.4120197594 -0.8543076515 0 0 0
90 1 5 0.0 -0.2066403776 0.2317380905 -1.2550513744 0 0 0
91 1 4 0.0 0.2666739523 -0.0570975542 -0.6905700564 0 0 0
92 1 2 0.0 0.3993411362 0.1568210721 -0.3819921017 0 0 0
93 1 6 0.0 0.6940017343 0.486015439 -0.2186335176 0 0 0
94 1 2 0.0 0.9539343715 0.8557323217 -0.1321442723 0 0 0
95 1 5 0.0 1.2289237976 1.199468255 -0.2530706823 0 0 0
96 1 4 0.0 -0.2530742884 -0.5410140157 0.4081474245 0 0 0
97 1 2 0.0 -0.5360515714 -0.2438488305 0.1552621722 0 0 0
98 1 6 0.0 -0.7571279407 0.1104535833 -0.0674373209 0 0 0
99 1 2 0.0 -0.9438017607 0.4827598929 -0.3932136893 0 0 0
100 1 5 0.0 -0.9289385676 0.7003766298 -0.8011818528 0 0 0
101 1 4 0.0 -0.0848521516 -0.6970107555 -0.1064177901 0 0 0
102 1 2 0.0 0.1074720919 -0.4310659468 0.0732603297 0 0 0
103 1 6 0.0 0.3926384449 -0.0777555034 0.1956762671 0 0 0
104 1 2 0.0 0.5082987547 0.3792185187 0.3150040805 0 0 0
105 1 5 0.0 0.4416406453 0.809053421 0.2802582383 0 0 0
106 1 4 0.0 -1.3674902916 0.1735037416 -0.2892650068 0 0 0
107 1 2 0.0 -1.2683343887 0.2667929828 -0.7502134442 0 0 0
108 1 6 0.0 -1.135663271 0.4039735198 -1.2111961842 0 0 0
109 1 2 0.0 -0.8580870628 0.4861956835 1.3275769949 0 0 -1
110 1 5 0.0 -0.5037926435 0.5919221044 0.9540798664 0 0 -1
111 1 4 0.0 1.0005614758 -0.5847792029 -0.0972982422 -1 0 0
112 1 2 0.0 1.3555977345 -0.4901544154 -0.3069337308 -1 0 0
113 1 6 0.0 -1.322896719 -0.4088829756 -0.6103713512 0 0 0
114 1 2 0.0 -1.2680432796 -0.3021482527 -1.0139362812 0 0 0
115 1 5 0.0 -1.4397974014 -5.85334e-05 -1.3234677315 0 0 0
116 1 4 0.0 -1.0663725138 -1.0585757494 0.3595693409 -1 1 0
117 1 2 0.0 -0.6997326612 -1.3615992069 0.3471415043 -1 1 0
118 1 6 0.0 -0.3663446903 1.1624675989 0.1716952473 -1 0 0
119 1 2 0.0 -0.0987858027 0.8327105045 0.1339625567 -1 0 0
120 1 5 0.0 0.0938315019 0.4309539497 -0.0270033665 -1 0 0
121 1 4 0.0 -1.0350387096 -0.4685243964 0.0949579775 1 0 0
122 1 2 0.0 -0.7350090146 -0.4419607222 -0.2475095391 1 0 0
123 1 6 0.0 -0.2773730755 -0.4969679713 -0.5577329397 1 0 0
124 1 2 0.0 0.0352982581 -0.6177728772 -0.9364023805 1 0 0
125 1 5 0.0 0.3025743365 -0.5427460074 -1.4264529943 1 0 0
126 1 4 0.0 -0.0716279447 1.1303403378 -0.2561125755 0 0 0
127 1 2 0.0 -0.2713511288 0.8256344795 -0.5929657221 0 0 0
128 1 6 0.0 -0.4885679781 0.4677031338 -0.8604230285 0 0 0
129 1 2 0.0 -0.7245457768 0.0964210182 -1.1645201445 0 0 0
130 1 5 0.0 -0.95975703 -0.2368371934 1.4477972984 0 0 -1
131 1 4 0.0 0.8096988797 -0.3068392575 -1.267916441 0 0 0
132 1 2 0.0 0.7637603283 0.1477691233 1.3972944021 0 0 -1
133 1 6 0.0 0.7256949544 0.6370076537 1.2433868647 0 0 -1
134 1 2 0.0 0.7029929161 1.0647389889 1.108699441 0 0 -1
135 1 5 0.0 0.7670373321 -1.2983903885 0.951584816 0 1 -1
136 1 4 0.0 -1.3114686012 -1.0603169203 -0.9224238992 1 1 0
137 1 2 0.0 -1.0589261055 -1.3780765533 -0.6899393201 1 1 0
138 1 6 0.0 -0.8321329951 1.2382940054 -0.5436644554 1 0 0
139 1 2 0.0 -0.6472700834 0.9202590585 -0.2887579203 1 0 0
140 1 5 0.0 -0.4782915115 0.5549220443 -0.0560624041 1 0 0
141 1 4 0.0 1.0081367493 -1.1177386045 -0.1547017545 -1 0 0
142 1 2 0.0 0.8068088293 -1.4009196758 -0.4999233484 -1 0 0
143 1 6 0.0 0.6076014042 1.1670287848 -0.793076396 -1 -1 0
144 1 2 0.0 0.4936780632 0.8064838648 -1.0625727177 -1 -1 0
145 1 5 0.0 0.3518911898 0.3883308768 -1.2282460928 -1 -1 0
146 1 4 0.0 -0.4465943277 0.883069396 1.4032117128 0 -1 -1
147 1 2 0.0 -0.071833156 0.9520591497 1.0943164825 0 -1 -1
148 1 6 0.0 0.2176507562 1.0650775433 0.7800237536 0 -1 -1
149 1 2 0.0 0.5433582664 1.2169777155 0.5778282881 0 -1 -1
150 1 5 0.0 0.847641468 1.3087364435 0.1998340786 0 -1 -1
151 1 4 0.0 0.9249128103 1.2268158197 -1.1703461409 0 -1 1
152 1 2 0.0 0.4808584452 1.3125352859 -1.3234050274 0 -1 1
153 1 6 0.0 0.0749670118 1.3400856256 -1.4110006094 0 -1 1
154 1 2 0.0 -0.3337155879 1.3784698248 1.3297013044 0 -1 0
155 1 5 0.0 -0.7576124668 1.4157733917 1.1046208143 0 -1 0
156 1 4 0.0 -1.0253645182 -0.8815222383 -1.3723520041 1 0 0
157 1 2 0.0 -1.2825125456 -1.1658951044 1.3548765182 1 0 -1
158 1 6 0.0 1.3926577568 1.3633539677 1.1054675579 0 -1 -1
159 1 2 0.0 1.3804337978 0.9806522131 0.8686109185 0 -1 -1
160 1 5 0.0 -1.3795001507 0.6486175656 0.5753594041 1 -1 -1

Bonds

1 1 1 2
2 12 1 125
3 2 2 3
4 7 3 121
5 1 4 5
6 11 4 146
7 12 4 100
8 2 5 6
9 1 7 8
10 12 7 140
11 2 8 9
12 8 9 90
13 1 10 11
14 12 10 95
15 2 11 12
16 1 13 14
17 2 14 15
18 8 15 160
19 7 15 71
20 1 16 17
21 12 16 85
22 11 16 156
23 2 17 18
24 8 18 145
25 7 18 91
26 1 19 20
27 2 20 21
28 8 21 75
29 7 21 131
30 1 22 23
31 2 23 24
32 8 24 70
33 8 24 115
34 1 25 26
35 11 25 106
36 2 26 27
37 7 27 141
38 7 27 116
39 1 28 29
40 11 28 111
41 11 28 86
42 2 29 30
43 1 31 32
44 2 32 33
45 1 34 35
46 11 34 76
47 2 35 36
48 1 37 38
49 2 38 39
50 8 39 110
51 1 40 41
52 11 40 96
53 2 41 42
54 8 42 105
55 7 42 126
56 1 43 44
57 11 43 101
58 2 44 45
59 1 46 47
60 12 46 80
61 2 47 48
62 8 48 130
63 1 49 50
64 2 50 51
65 1 52 53
66 2 53 54
67 1 55 56
68 11 55 66
69 11 55 136
70 2 56 57
71 8 57 65
72 8 57 135
73 1 58 59
74 11 58 61
75 11 58 151
76 2 59 60
77 5 61 62
78 4 62 63
79 4 63 64
80 3 64 65
81 5 66 67
82 4 67 68
83 4 68 69
84 3 69 70
85 5 71 72
86 4 72 73
87 4 73 74
88 3 74 75
89 5 76 77
90 4 77 78
91 4 78 79
92 3 79 80
93 5 81 82
94 4 82 83
95 4 83 84
96 3 84 85
97 5 86 87
98 4 87 88
99 4 88 89
100 3 89 90
101 5 91 92
102 4 92 93
103 4 93 94
104 3 94 95
105 5 96 97
106 4 97 98
107 4 98 99
108 3 99 100
109 5 101 102
110 4 102 103
111 4 103 104
112 3 104 105
113 5 106 107
114 4 107 108
115 4 108 109
116 3 109 110
117 5 111 112
118 4 112 113
119 4 113 114
120 3 114 115
121 5 116 117
122 4 117 118
123 4 118 119
124 3 119 120
125 5 121 122
126 4 122 123
127 4 123 124
128 3 124 125
129 5 126 127
130 4 127 128
131 4 128 129
132 3 129 130
133 5 131 132
134 4 132 133
135 4 133 134
136 3 134 135
137 5 136 137
138 4 137 138
139 4 138 139
140 3 139 140
141 5 141 142
142 4 142 143
143 4 143 144
144 3 144 145
145 5 146 147
146 4 147 148
147 4 148 149
148 3 149 150
149 5 151 152
150 4 152 153
151 4 153 154
152 3 154 155
153 5 156 157
154 4 157 158
155 4 158 159
156 3 159 160
