# LAMMPS data file written by Ovito 3.0.0-dev349
160 atoms
157 bonds
6 atom types
12 bond types
-1.440947652 1.440947652 xlo xhi
-1.440947652 1.440947652 ylo yhi
-1.440947652 1.440947652 zlo zhi

Atoms # full

1 1 1 0.0 0.7502174973 -0.4028391242 0.6893411279 0 0 0
2 1 2 0.0 1.2740873098 -0.5740283132 0.6261502504 0 0 0
3 1 3 0.0 -1.130613327 -0.4598108232 0.3932839632 1 0 0
4 1 1 0.0 -0.9163665771 1.0924978256 -1.0377253294 1 0 1
5 1 2 0.0 -1.2505447865 1.0223675966 -1.3918874264 1 0 1
6 1 3 0.0 1.2487980127 0.8872200251 1.3436491489 0 0 0
7 1 1 0.0 -0.3781554699 0.08915402 0.3234099746 1 -1 0
8 1 2 0.0 -0.4722848535 0.0855613053 0.7841306925 1 -1 0
9 1 3 0.0 -0.3791586757 -0.1181031168 1.2130672932 1 -1 0
10 1 1 0.0 1.3002260923 1.2876852751 -0.402276665 -1 -1 0
11 1 2 0.0 1.1828312874 -1.1883164644 -0.739397943 -1 0 0
12 1 3 0.0 1.1646230221 -1.0188099146 -1.2351504564 -1 0 0
13 1 1 0.0 1.2968155146 -0.1429021508 1.0788123608 -1 0 0
14 1 2 0.0 -1.3037083149 0.0114657106 0.7328295112 0 0 0
15 1 3 0.0 -1.1891336441 0.3278177381 0.501350224 0 0 0
16 1 1 0.0 -0.7267695665 -0.4209613204 -1.1478936672 -1 0 1
17 1 2 0.0 -0.3572323918 -0.3267681897 -1.195168376 -1 0 1
18 1 3 0.0 0.0457451232 -0.2292872369 -0.9642953873 -1 0 1
19 1 1 0.0 0.6513372064 -1.0502369404 -0.5155078173 -1 0 1
20 1 2 0.0 0.7592146993 -0.8495670557 -0.8502309322 -1 0 1
21 1 3 0.0 0.6909585595 -0.8027065396 -1.307235837 -1 0 1
22 1 1 0.0 0.9120699167 0.5082048178 -0.6307771802 0 0 1
23 1 2 0.0 1.1700593233 0.5676572919 -1.108225584 0 0 1
24 1 3 0.0 1.3384405375 0.4109533429 -1.4128187895 0 0 1
25 1 1 0.0 1.3694489002 -0.1097766086 0.1287742853 0 0 1
26 1 2 0.0 1.193136096 -0.4314447939 0.1209746078 0 0 1
27 1 3 0.0 1.1981766224 -0.8661547899 0.2090002894 0 0 1
28 1 1 0.0 0.6072324514 -0.9210807085 0.0267532915 0 0 0
29 1 2 0.0 0.6378578544 -0.8153268099 0.4165576398 0 0 0
30 1 3 0.0 0.6048561335 -0.9215258956 0.8273632526 0 0 0
31 1 1 0.0 -0.3374381661 -0.6882978678 1.2174637318 0 1 0
32 1 2 0.0 -0.0064051077 -0.3910628557 0.9352355003 0 1 0
33 1 3 0.0 -0.017964121 -0.1266393512 0.5567338467 0 1 0
34 1 1 0.0 -0.0043944735 0.3825396001 1.1513494253 0 -1 -1
35 1 2 0.0 0.2859480679 0.0730331242 1.1721147299 0 -1 -1
36 1 3 0.0 0.7581031322 -0.0176764466 1.0468585491 0 -1 -1
37 1 1 0.0 0.8563053012 0.7425252795 0.9515979886 0 0 0
38 1 2 0.0 0.3940229416 0.7527049184 0.9890691042 0 0 0
39 1 3 0.0 0.0143809794 0.9291294813 0.7994499207 0 0 0
40 1 1 0.0 0.0991541147 -0.9194911718 0.577167213 0 0 0
41 1 2 0.0 0.2969276011 -1.3625776768 0.4235191345 0 0 0
42 1 3 0.0 0.2471054494 1.1210998297 0.1941223145 0 -1 0
43 1 1 0.0 -0.1375066787 -1.1723480225 -0.7557407618 0 0 0
44 1 2 0.0 -0.4769593179 1.4400683641 -0.5517764091 0 -1 0
45 1 3 0.0 -0.6384123564 1.2116297483 -0.1959445328 0 -1 0
46 1 1 0.0 -0.387414664 -1.0420770645 0.6947343946 1 0 0
47 1 2 0.0 -0.8947347999 -0.8143759966 0.6927908659 1 0 0
48 1 3 0.0 -1.1811174154 -0.4760114849 0.9838728309 1 0 0
49 1 1 0.0 -0.4483798146 -0.4492381513 0.6567712426 0 1 0
50 1 2 0.0 -0.5780545473 -0.6835448146 0.3004595339 0 1 0
51 1 3 0.0 -0.5391386747 -0.9757788181 -0.1206510141 0 1 0
52 1 1 0.0 -1.1176949739 0.5294705033 1.0445359945 0 1 0
53 1 2 0.0 -1.1450252533 0.9828834534 0.9640886188 0 1 0
54 1 3 0.0 -1.0345495939 1.3910298347 1.1245244741 0 1 0
55 1 1 0.0 1.3412641287 -0.5133262873 -1.1741433144 -1 0 1
56 1 2 0.0 1.2066310644 -0.6066330671 1.3175028563 -1 0 0
57 1 3 0.0 1.1456333399 -0.8976551294 1.0112031698 -1 0 0
58 1 1 0.0 1.2817702293 1.2615077496 -1.0727707148 -1 0 0
59 1 2 0.0 -1.2605600357 -1.3600333929 -1.2386846542 0 1 0
60 1 3 0.0 -0.780241549 -1.1065249443 -1.1845109463 0 1 0
61 1 4 0.0 1.368103385 0.8836219907 -0.6866384149 0 0 0
62 1 2 0.0 -1.4087914228 0.7722946405 -0.2639108598 1 0 0
63 1 6 0.0 -1.2592560053 0.9973928928 0.1158899814 1 0 0
64 1 2 0.0 -1.255450964 1.3484611511 0.4793036282 1 0 0
65 1 5 0.0 -1.3647091389 -1.1872417927 0.7336984873 1 1 0
66 1 4 0.0 1.0470581055 -0.3005816042 -0.7560870051 -1 0 0
67 1 2 0.0 0.9021897316 -0.0359071866 -0.2780617774 -1 0 0
68 1 6 0.0 0.9331344962 0.1587003469 0.1623637229 -1 0 0
69 1 2 0.0 1.0446221828 0.2864021063 0.5673008561 -1 0 0
70 1 5 0.0 1.1479783058 0.3297508657 1.008415103 -1 0 0
71 1 4 0.0 -0.7948170304 0.7120610476 0.5521259308 0 -1 0
72 1 2 0.0 -0.5784459114 1.0566915274 0.6846195459 0 -1 0
73 1 6 0.0 -0.2988312542 1.3734104633 0.832152307 0 -1 0
74 1 2 0.0 0.0516481958 -1.2106512785 1.0111228228 0 0 0
75 1 5 0.0 0.3784020543 -1.0673421621 1.285504818 0 0 0
76 1 4 0.0 0.1445557475 0.7171071172 -1.3848330975 0 0 0
77 1 2 0.0 0.2242114097 0.9861108065 -1.0787539482 0 0 0
78 1 6 0.0 0.1656334847 1.2939641476 -0.6585540771 0 0 0
79 1 2 0.0 -0.021699274 -1.3054225445 -0.2108923942 0 1 0
80 1 5 0.0 -0.1734216809 -1.1048779488 0.2134639025 0 1 0
81 1 4 0.0 0.8121294975 0.8986542821 0.4449527562 -1 0 0
82 1 2 0.0 1.0871140957 1.1771767139 0.2557313442 -1 0 0
83 1 6 0.0 -1.4193899632 -1.3859803677 0.0172373056 0 1 0
84 1 2 0.0 -1.1467932463 -1.005401969 -0.2685586214 0 1 0
85 1 5 0.0 -0.9000195861 -0.738286674 -0.6510224938 0 1 0
86 1 4 0.0 0.4776573479 -1.4203556776 -0.1169122607 0 1 0
87 1 2 0.0 0.422878325 1.0356104374 -0.2715138793 0 0 0
88 1 6 0.0 0.2351670861 0.6690745354 -0.4870904982 0 0 0
89 1 2 0.0 -0.0254276823 0.4365386963 -0.8813208342 0 0 0
90 1 5 0.0 -0.2016429901 0.196251601 -1.2700713873 0 0 0
91 1 4 0.0 -0.0335981511 -0.1330377311 -0.4815616012 0 0 0
92 1 2 0.0 0.1385868937 0.1244454086 -0.0856397673 0 0 0
93 1 6 0.0 0.4397785366 0.3652220368 -0.0149130281 0 0 0
94 1 2 0.0 0.7633660436 0.6447933912 -0.0720798448 0 0 0
95 1 5 0.0 1.0122133493 0.9573315978 -0.2142525315 0 0 0
96 1 4 0.0 -0.0502057113 -0.5943318605 0.2393970639 0 0 0
97 1 2 0.0 -0.2592249513 -0.3116745651 -0.0163041111 0 0 0
98 1 6 0.0 -0.5498134494 -0.0130549576 -0.2873489857 0 0 0
99 1 2 0.0 -0.778645575 0.2883810103 -0.4825935066 0 0 0
100 1 5 0.0 -0.9124129415 0.668292582 -0.6893299222 0 0 0
101 1 4 0.0 0.1746275425 -0.8238353133 -0.4483857751 0 0 0
102 1 2 0.0 0.3295886219 -0.4918539226 -0.09470281 0 0 0
103 1 6 0.0 0.4418737292 -0.1312250346 0.2320752293 0 0 0
104 1 2 0.0 0.4354510009 0.2081640661 0.4717697203 0 0 0
105 1 5 0.0 0.3522768915 0.6799110174 0.4204729199 0 0 0
106 1 4 0.0 -1.4343005419 0.052186124 -0.3780133426 0 0 0
107 1 2 0.0 -1.2786300182 0.3343706429 -0.7767669559 0 0 0
108 1 6 0.0 -1.1431083679 0.546608448 -1.1221758127 0 0 0
109 1 2 0.0 -0.8336163759 0.7206773162 1.4020841122 0 0 -1
110 1 5 0.0 -0.4324384332 0.8086879253 1.1007615328 0 0 -1
111 1 4 0.0 0.9702372551 -0.7349632978 -0.2465745807 -1 0 0
112 1 2 0.0 1.3057501316 -0.6474810243 -0.4109563231 -1 0 0
113 1 6 0.0 -1.2904627323 -0.4366341531 -0.6758520007 0 0 0
114 1 2 0.0 -1.1965123415 -0.2421932369 -0.9165791869 0 0 0
115 1 5 0.0 -1.3236037493 0.0415855385 -1.2360417843 0 0 0
116 1 4 0.0 -1.1606996059 -1.0089606047 0.261200428 -1 1 0
117 1 2 0.0 -0.813777864 -1.2250630856 0.3208333254 -1 1 0
118 1 6 0.0 -0.3923849463 1.3392769098 0.2502847612 -1 0 0
119 1 2 0.0 -0.2049649507 0.8858963251 0.2887836099 -1 0 0
120 1 5 0.0 -0.1343491971 0.5301015377 0.2998005748 -1 0 0
121 1 4 0.0 -0.8299990892 -0.4626395106 -0.0581623763 1 0 0
122 1 2 0.0 -0.4179857969 -0.6271759272 -0.5648348927 1 0 0
123 1 6 0.0 -0.1306063384 -0.7076268792 -0.942328155 1 0 0
124 1 2 0.0 0.15436171 -0.6641150713 -1.3202283382 1 0 0
125 1 5 0.0 0.4742256999 -0.5236577988 1.112695694 1 0 -1
126 1 4 0.0 -0.1093555912 1.0091528893 -0.198793605 0 0 0
127 1 2 0.0 -0.2988063395 0.8749006391 -0.6113841534 0 0 0
128 1 6 0.0 -0.4873449802 0.6196910739 -0.9775740504 0 0 0
129 1 2 0.0 -0.726513803 0.1898788363 -1.3265596628 0 0 0
130 1 5 0.0 -0.9592365026 -0.1593479961 1.2862391472 0 0 -1
131 1 4 0.0 0.745679915 -0.2403832376 -1.2493650913 0 0 0
132 1 2 0.0 0.7575906515 0.2329113632 -1.3404607773 0 0 0
133 1 6 0.0 0.7226089239 0.6675294638 1.4401248693 0 0 -1
134 1 2 0.0 0.7359078526 1.2003445625 1.3293821812 0 0 -1
135 1 5 0.0 0.8327065706 -1.2847524881 1.2400829792 0 1 -1
136 1 4 0.0 -1.2235532999 -0.9115923047 -0.9655096531 1 1 0
137 1 2 0.0 -1.0869748592 -1.3121910095 -0.6923778653 1 1 0
138 1 6 0.0 -1.0621961355 1.1496479511 -0.4376744628 1 0 0
139 1 2 0.0 -0.8989157677 0.7617971897 -0.1484150738 1 0 0
140 1 5 0.0 -0.6743857265 0.4398075044 0.0693310723 1 0 0
141 1 4 0.0 1.0053465366 -1.2389265299 -0.1813711226 -1 0 0
142 1 2 0.0 0.8098610044 1.3393801451 -0.5228937864 -1 -1 0
143 1 6 0.0 0.7128690481 0.9717997313 -0.7636321187 -1 -1 0
144 1 2 0.0 0.5118920803 0.5553531051 -0.9689697623 -1 -1 0
145 1 5 0.0 0.3433820009 0.1710168421 -1.045306921 -1 -1 0
146 1 4 0.0 -0.4399214089 1.1741741896 -1.3338420391 0 -1 0
147 1 2 0.0 0.0185581259 1.1821488142 1.2853431702 0 -1 -1
148 1 6 0.0 0.3511041701 1.2489976883 1.0468429327 0 -1 -1
149 1 2 0.0 0.6562824845 1.4039885998 0.8160662055 0 -1 -1
150 1 5 0.0 0.9959149957 -1.212947607 0.5369624496 0 0 -1
151 1 4 0.0 0.8225734234 -1.3999890089 -1.1149325371 0 0 1
152 1 2 0.0 0.4393117428 -1.3151375055 -1.1172872782 0 0 1
153 1 6 0.0 0.0915584788 -1.2899932861 -1.227539897 0 0 1
154 1 2 0.0 -0.2821210921 -1.1663960218 -1.4132618904 0 0 1
155 1 5 0.0 -0.7729469538 -1.0272408724 1.1721868515 0 0 0
156 1 4 0.0 -1.0594604015 -0.6591604948 -1.4234445095 1 0 0
157 1 2 0.0 -1.279607892 -0.9735408425 1.2718764544 1 0 -1
158 1 6 0.0 1.2992503643 1.4362438917 1.089835763 0 -1 -1
159 1 2 0.0 1.2395957708 1.0424624681 0.8150543571 0 -1 -1
160 1 5 0.0 1.3861008883 0.6888087392 0.6191934943 0 -1 -1

Bonds

1 1 1 2
2 12 1 125
3 2 2 3
4 7 3 121
5 1 4 5
6 11 4 146
7 12 4 100
8 2 5 6
9 1 7 8
10 12 7 140
11 12 7 120
12 2 8 9
13 8 9 90
14 1 10 11
15 12 10 95
16 2 11 12
17 1 13 14
18 2 14 15
19 8 15 160
20 7 15 71
21 1 16 17
22 12 16 85
23 11 16 156
24 2 17 18
25 8 18 145
26 7 18 91
27 1 19 20
28 2 20 21
29 8 21 75
30 7 21 131
31 1 22 23
32 2 23 24
33 8 24 70
34 8 24 115
35 1 25 26
36 11 25 106
37 2 26 27
38 7 27 141
39 7 27 116
40 1 28 29
41 11 28 111
42 11 28 86
43 2 29 30
44 1 31 32
45 2 32 33
46 1 34 35
47 11 34 76
48 2 35 36
49 1 37 38
50 2 38 39
51 8 39 110
52 1 40 41
53 11 40 96
54 2 41 42
55 8 42 105
56 7 42 126
57 1 43 44
58 11 43 101
59 2 44 45
60 1 46 47
61 12 46 80
62 2 47 48
63 8 48 130
64 1 49 50
65 2 50 51
66 1 52 53
67 2 53 54
68 1 55 56
69 11 55 66
70 11 55 136
71 2 56 57
72 8 57 65
73 8 57 135
74 1 58 59
75 11 58 61
76 11 58 151
77 2 59 60
78 5 61 62
79 4 62 63
80 4 63 64
81 3 64 65
82 5 66 67
83 4 67 68
84 4 68 69
85 3 69 70
86 5 71 72
87 4 72 73
88 4 73 74
89 3 74 75
90 5 76 77
91 4 77 78
92 4 78 79
93 3 79 80
94 5 81 82
95 4 82 83
96 4 83 84
97 3 84 85
98 5 86 87
99 4 87 88
100 4 88 89
101 3 89 90
102 5 91 92
103 4 92 93
104 4 93 94
105 3 94 95
106 5 96 97
107 4 97 98
108 4 98 99
109 3 99 100
110 5 101 102
111 4 102 103
112 4 103 104
113 3 104 105
114 5 106 107
115 4 107 108
116 4 108 109
117 3 109 110
118 5 111 112
119 4 112 113
120 4 113 114
121 3 114 115
122 5 116 117
123 4 117 118
124 4 118 119
125 3 119 120
126 5 121 122
127 4 122 123
128 4 123 124
129 3 124 125
130 5 126 127
131 4 127 128
132 4 128 129
133 3 129 130
134 5 131 132
135 4 132 133
136 4 133 134
137 3 134 135
138 5 136 137
139 4 137 138
140 4 138 139
141 3 139 140
142 5 141 142
143 4 142 143
144 4 143 144
145 3 144 145
146 5 146 147
147 4 147 148
148 4 148 149
149 3 149 150
150 5 151 152
151 4 152 153
152 4 153 154
153 3 154 155
154 5 156 157
155 4 157 158
156 4 158 159
157 3 159 160
