# LAMMPS data file written by Ovito 3.0.0-dev349
160 atoms
157 bonds
6 atom types
12 bond types
-1.4307943585 1.4307943585 xlo xhi
-1.4307943585 1.4307943585 ylo yhi
-1.4307943585 1.4307943585 zlo zhi

Atoms # full

1 1 1 0.0 0.4594166577 -0.3563371003 0.79110533 0 0 0
2 1 2 0.0 1.0051447153 -0.2937543094 0.6319573522 0 0 0
3 1 3 0.0 -1.3314679861 -0.4562363923 0.5326610208 1 0 0
4 1 1 0.0 -0.9009410739 0.9674392939 -1.1550564766 1 0 1
5 1 2 0.0 -1.2699697018 0.8631468415 -1.401678443 1 0 1
6 1 3 0.0 1.1615124941 0.9903225899 1.3761970997 0 0 0
7 1 1 0.0 -0.275385946 0.4271339476 0.379971683 1 -1 0
8 1 2 0.0 -0.4533938468 0.1523047239 0.6781244874 1 -1 0
9 1 3 0.0 -0.4589340389 0.0123610394 1.163602829 1 -1 0
10 1 1 0.0 1.3486822844 1.2850852013 -0.3991556466 -1 -1 0
11 1 2 0.0 1.1956654787 -1.3030897379 -0.7639256716 -1 0 0
12 1 3 0.0 1.0686593056 -1.1986113787 -1.2475816011 -1 0 0
13 1 1 0.0 -1.2620140314 -0.2439064533 0.9832048416 0 0 0
14 1 2 0.0 -0.9888262749 -0.0455009043 0.6835542321 0 0 0
15 1 3 0.0 -0.9290112257 0.2666151226 0.4136681557 0 0 0
16 1 1 0.0 -0.9456955791 -0.6693199873 -1.0303552151 -1 0 1
17 1 2 0.0 -0.5246955752 -0.4487567842 -1.0998009443 -1 0 1
18 1 3 0.0 -0.179552123 -0.1055909991 -0.8905397654 -1 0 1
19 1 1 0.0 0.8209653497 -1.0450875759 -0.5745553374 -1 0 1
20 1 2 0.0 0.7831608057 -0.7534856796 -0.8700069785 -1 0 1
21 1 3 0.0 0.6937688589 -0.6460001469 -1.2829805613 -1 0 1
22 1 1 0.0 1.0361852646 0.6482565403 -0.9501725435 0 0 1
23 1 2 0.0 1.1115760803 0.4598138332 -1.3797168732 0 0 1
24 1 3 0.0 1.3391083479 0.3623281717 1.1775602102 0 0 0
25 1 1 0.0 1.2747806311 0.1553323269 -0.095689781 0 0 1
26 1 2 0.0 1.1203671694 -0.2706781924 0.1137938723 0 0 1
27 1 3 0.0 1.2135573626 -0.7750480175 0.212697342 0 0 1
28 1 1 0.0 0.6000148058 -0.9087171555 0.1192498505 0 0 0
29 1 2 0.0 0.7500881553 -0.9243757129 0.5344442129 0 0 0
30 1 3 0.0 0.7311052084 -0.7519202828 1.0147395134 0 0 0
31 1 1 0.0 -0.0910877362 -0.2338928133 -1.415517211 0 1 1
32 1 2 0.0 -0.0734519288 -0.2161462009 0.976231575 0 1 0
33 1 3 0.0 0.0465083979 0.0135763511 0.6238684058 0 1 0
34 1 1 0.0 0.1995780766 0.1568250507 1.1794577837 0 -1 -1
35 1 2 0.0 0.6615585089 0.0446763188 1.0485349894 0 -1 -1
36 1 3 0.0 1.0986021757 -0.1431385875 1.2283732891 0 -1 -1
37 1 1 0.0 0.8862921596 0.7081443667 0.8639352322 0 0 0
38 1 2 0.0 0.4788462818 0.527058959 0.9103188515 0 0 0
39 1 3 0.0 0.0521553159 0.522936523 0.8010926247 0 0 0
40 1 1 0.0 0.2500081956 -0.8102814555 0.6721057296 0 0 0
41 1 2 0.0 0.2096236497 -1.3219738007 0.588704288 0 0 0
42 1 3 0.0 0.3264903724 1.1465069056 0.2437919825 0 -1 0
43 1 1 0.0 -0.545809567 -0.9705507755 -0.4127367735 0 0 0
44 1 2 0.0 -0.5627352595 -1.2109416723 -0.7761985064 0 0 0
45 1 3 0.0 -0.409426719 1.3752257824 -1.0408142805 0 -1 0
46 1 1 0.0 -0.2211207002 -1.0199600458 0.6105718613 1 0 0
47 1 2 0.0 -0.6251958013 -1.0226610899 0.8444088101 1 0 0
48 1 3 0.0 -1.034529686 -0.7739676237 0.997390449 1 0 0
49 1 1 0.0 -0.5414311886 -0.4291626215 0.8864144683 0 1 0
50 1 2 0.0 -0.6703783274 -0.5938673615 0.4898366332 0 1 0
51 1 3 0.0 -0.5134433508 -0.7624996901 0.1074163541 0 1 0
52 1 1 0.0 -1.0669578314 0.4966131449 0.9368259907 0 1 0
53 1 2 0.0 -1.0588177443 0.9017500281 0.9933360219 0 1 0
54 1 3 0.0 -0.7834043503 1.3585734367 1.1581597328 0 1 0
55 1 1 0.0 1.2367033958 -0.525042057 -1.2390372753 -1 0 1
56 1 2 0.0 1.3418778181 -0.6609016061 1.1152342558 -1 0 0
57 1 3 0.0 1.2163691521 -0.976243794 0.7920179963 -1 0 0
58 1 1 0.0 1.3346908092 1.0644079447 -1.0044122934 -1 0 0
59 1 2 0.0 -1.2511650324 1.3402354717 -1.2366884947 0 0 0
60 1 3 0.0 -0.830476284 -1.2449748516 -1.2437016964 0 1 0
61 1 4 0.0 -1.3920692205 0.7928583026 -0.4923178256 1 0 0
62 1 2 0.0 -1.2401857376 0.7906597257 -0.0538820475 1 0 0
63 1 6 0.0 -1.0423029661 0.9687772393 0.2578075528 1 0 0
64 1 2 0.0 -1.0590592623 1.2429671288 0.5257998109 1 0 0
65 1 5 0.0 -1.2348759174 -1.2660638094 0.6738991737 1 1 0
66 1 4 0.0 1.0352874994 -0.1453974396 -0.9445238709 -1 0 0
67 1 2 0.0 0.8933223486 -0.0463398583 -0.4850360155 -1 0 0
68 1 6 0.0 0.7899572253 0.0831976384 -0.0591736957 -1 0 0
69 1 2 0.0 0.9171808958 0.1688787043 0.3307259679 -1 0 0
70 1 5 0.0 1.0957728624 0.2425214499 0.7337061763 -1 0 0
71 1 4 0.0 -0.6956027746 0.6952233315 0.5571841002 0 -1 0
72 1 2 0.0 -0.5483131409 1.093991518 0.6807832718 0 -1 0
73 1 6 0.0 -0.3084930778 1.3924446106 0.8671649098 0 -1 0
74 1 2 0.0 0.0316334367 -1.2634361982 1.1033655405 0 0 0
75 1 5 0.0 0.4145415723 -1.0036467314 1.3613780737 0 0 0
76 1 4 0.0 0.1462591738 0.5789501071 -1.401646018 0 0 0
77 1 2 0.0 0.0740210861 0.9283823967 -1.1715285778 0 0 0
78 1 6 0.0 -0.0033331129 1.2266472578 -0.7797594666 0 0 0
79 1 2 0.0 -0.0441794097 -1.373385787 -0.3448927701 0 1 0
80 1 5 0.0 -0.1168377027 -1.2155653238 0.0669382066 0 1 0
81 1 4 0.0 0.9483739734 0.8063412905 0.359282881 -1 0 0
82 1 2 0.0 1.2631002665 1.1197147369 0.2275494486 -1 0 0
83 1 6 0.0 -1.3289626837 -1.3812355995 0.0599501431 0 1 0
84 1 2 0.0 -1.1655224562 -1.0001853704 -0.2099782825 0 1 0
85 1 5 0.0 -1.031337142 -0.7694456577 -0.5228176117 0 1 0
86 1 4 0.0 0.4603036046 -1.3931056261 -0.0911908671 0 1 0
87 1 2 0.0 0.2976857126 1.090931654 -0.3338150084 0 0 0
88 1 6 0.0 0.1548864543 0.7799009681 -0.6082110405 0 0 0
89 1 2 0.0 -0.0855082646 0.495683223 -0.9408673644 0 0 0
90 1 5 0.0 -0.2547612786 0.2675716281 -1.3160674572 0 0 0
91 1 4 0.0 -0.2712778449 0.084582381 -0.4655125737 0 0 0
92 1 2 0.0 -0.0465603806 0.2875239253 -0.1560512334 0 0 0
93 1 6 0.0 0.2777205408 0.546757102 -0.08556398 0 0 0
94 1 2 0.0 0.6296157837 0.6985432506 -0.0947858468 0 0 0
95 1 5 0.0 1.0556943417 0.9100902677 -0.1616041064 0 0 0
96 1 4 0.0 -0.0319606401 -0.4860981107 0.4578216672 0 0 0
97 1 2 0.0 -0.4207992554 -0.120798327 0.2099894136 0 0 0
98 1 6 0.0 -0.64466995 0.0444590747 -0.059666682 0 0 0
99 1 2 0.0 -0.8229814172 0.354060024 -0.2838623822 0 0 0
100 1 5 0.0 -0.8767972589 0.7170657516 -0.6539399028 0 0 0
101 1 4 0.0 -0.0923594162 -0.7953392863 -0.2337936014 0 0 0
102 1 2 0.0 0.188950032 -0.4815238416 -0.0580453761 0 0 0
103 1 6 0.0 0.3418867588 -0.1096440703 0.1359980255 0 0 0
104 1 2 0.0 0.4017924666 0.2154539526 0.3218849301 0 0 0
105 1 5 0.0 0.4543372989 0.6717556119 0.3974062502 0 0 0
106 1 4 0.0 1.3936741352 0.2651060224 -0.542142868 -1 0 0
107 1 2 0.0 -1.2824920416 0.3512400091 -0.8147194386 0 0 0
108 1 6 0.0 -1.0139342546 0.4573847055 -1.1163595915 0 0 0
109 1 2 0.0 -0.7430589795 0.4755363464 -1.4029051065 0 0 0
110 1 5 0.0 -0.3863150775 0.5307228565 1.0852671862 0 0 -1
111 1 4 0.0 0.9001654983 -0.6275767684 -0.1491145641 -1 0 0
112 1 2 0.0 1.2631646395 -0.5139915943 -0.4164663553 -1 0 0
113 1 6 0.0 -1.3797376156 -0.3745885789 -0.7180713415 0 0 0
114 1 2 0.0 -1.2047390938 -0.1749903262 -0.9998417497 0 0 0
115 1 5 0.0 -1.2102198601 0.0372205675 -1.3811159134 0 0 0
116 1 4 0.0 -1.1683747768 -0.9196965694 0.3385379612 -1 1 0
117 1 2 0.0 -0.8516328931 -1.1446837187 0.3105322421 -1 1 0
118 1 6 0.0 -0.5240189433 -1.4115713835 0.3363267481 -1 1 0
119 1 2 0.0 -0.1819971353 1.216983676 0.3697348237 -1 0 0
120 1 5 0.0 -0.0294228364 0.8786738515 0.4280973673 -1 0 0
121 1 4 0.0 -1.0052391291 -0.4437313676 0.0689452365 1 0 0
122 1 2 0.0 -0.6004995108 -0.4948652685 -0.3019606769 1 0 0
123 1 6 0.0 -0.2169520706 -0.5913546681 -0.6838095188 1 0 0
124 1 2 0.0 0.0993974581 -0.6600775719 -1.1616001129 1 0 0
125 1 5 0.0 0.286462754 -0.5308237672 1.2627339363 1 0 -1
126 1 4 0.0 -0.1250096112 0.9866970778 -0.1497565508 0 0 0
127 1 2 0.0 -0.35935238 0.7195418477 -0.5198335648 0 0 0
128 1 6 0.0 -0.5627859831 0.3657011688 -0.8165057898 0 0 0
129 1 2 0.0 -0.7377422452 -0.0179315805 -1.2515308857 0 0 0
130 1 5 0.0 -0.9470077157 -0.382809937 1.374511838 0 0 -1
131 1 4 0.0 0.6102487445 -0.1572525799 -1.3029575348 0 0 0
132 1 2 0.0 0.5896813869 0.2950378656 -1.3386679888 0 0 0
133 1 6 0.0 0.5984303355 0.8114240766 1.4024069309 0 0 -1
134 1 2 0.0 0.7248817086 1.2378876209 1.2631055117 0 0 -1
135 1 5 0.0 0.9010930061 -1.3248740435 1.0424656868 0 1 -1
136 1 4 0.0 -1.3651760817 -0.9052066803 -0.9635344148 1 1 0
137 1 2 0.0 -1.1570329666 -1.2157095671 -0.7832038999 1 1 0
138 1 6 0.0 -0.9497154951 1.3383201361 -0.5279952884 1 0 0
139 1 2 0.0 -0.7226899862 0.9765683413 -0.2315504104 1 0 0
140 1 5 0.0 -0.5530738831 0.7015197873 0.0244675893 1 0 0
141 1 4 0.0 0.9949786067 -1.1786860228 -0.1021236181 -1 0 0
142 1 2 0.0 0.8148433566 1.2379629612 -0.4525694847 -1 -1 0
143 1 6 0.0 0.6815977693 0.8453992009 -0.6548419595 -1 -1 0
144 1 2 0.0 0.5319818854 0.4593360126 -0.7909955978 -1 -1 0
145 1 5 0.0 0.2908618748 0.0758799464 -0.9474269748 -1 -1 0
146 1 4 0.0 -0.4992511272 0.9732486606 1.3876105547 0 -1 -1
147 1 2 0.0 -0.0595626645 0.9732985497 1.0773916245 0 -1 -1
148 1 6 0.0 0.3066686392 1.0426732302 0.8753620386 0 -1 -1
149 1 2 0.0 0.6489434838 1.2105050087 0.7125791311 0 -1 -1
150 1 5 0.0 0.9962463379 -1.4209008217 0.524333179 0 0 -1
151 1 4 0.0 0.8228462934 1.2057565451 -1.0153169632 0 -1 1
152 1 2 0.0 0.4812360704 -1.4302499294 -1.0434646606 0 0 1
153 1 6 0.0 0.1178541556 -1.186830163 -1.1011878252 0 0 1
154 1 2 0.0 -0.2464116365 -1.022810936 -1.2894201279 0 0 1
155 1 5 0.0 -0.5768127441 -0.7959645391 1.3344779015 0 0 0
156 1 4 0.0 -1.1872595549 -0.9085481763 -1.4169106483 1 0 0
157 1 2 0.0 -1.381187439 -1.2230519056 1.2017803192 1 0 -1
158 1 6 0.0 1.3715723753 1.2393852472 0.9662243128 0 -1 -1
159 1 2 0.0 1.3792098761 0.967751503 0.7154716253 0 -1 -1
160 1 5 0.0 -1.3491060734 0.6067498922 0.5317969322 1 -1 -1

Bonds

1 1 1 2
2 12 1 125
3 2 2 3
4 7 3 121
5 1 4 5
6 11 4 146
7 12 4 100
8 2 5 6
9 1 7 8
10 12 7 140
11 12 7 120
12 2 8 9
13 8 9 90
14 1 10 11
15 12 10 95
16 2 11 12
17 1 13 14
18 2 14 15
19 8 15 160
20 7 15 71
21 1 16 17
22 12 16 85
23 11 16 156
24 2 17 18
25 8 18 145
26 7 18 91
27 1 19 20
28 2 20 21
29 8 21 75
30 7 21 131
31 1 22 23
32 2 23 24
33 8 24 70
34 8 24 115
35 1 25 26
36 11 25 106
37 2 26 27
38 7 27 141
39 7 27 116
40 1 28 29
41 11 28 111
42 11 28 86
43 2 29 30
44 1 31 32
45 2 32 33
46 1 34 35
47 11 34 76
48 2 35 36
49 1 37 38
50 2 38 39
51 8 39 110
52 1 40 41
53 11 40 96
54 2 41 42
55 8 42 105
56 7 42 126
57 1 43 44
58 11 43 101
59 2 44 45
60 1 46 47
61 12 46 80
62 2 47 48
63 8 48 130
64 1 49 50
65 2 50 51
66 1 52 53
67 2 53 54
68 1 55 56
69 11 55 66
70 11 55 136
71 2 56 57
72 8 57 65
73 8 57 135
74 1 58 59
75 11 58 61
76 11 58 151
77 2 59 60
78 5 61 62
79 4 62 63
80 4 63 64
81 3 64 65
82 5 66 67
83 4 67 68
84 4 68 69
85 3 69 70
86 5 71 72
87 4 72 73
88 4 73 74
89 3 74 75
90 5 76 77
91 4 77 78
92 4 78 79
93 3 79 80
94 5 81 82
95 4 82 83
96 4 83 84
97 3 84 85
98 5 86 87
99 4 87 88
100 4 88 89
101 3 89 90
102 5 91 92
103 4 92 93
104 4 93 94
105 3 94 95
106 5 96 97
107 4 97 98
108 4 98 99
109 3 99 100
110 5 101 102
111 4 102 103
112 4 103 104
113 3 104 105
114 5 106 107
115 4 107 108
116 4 108 109
117 3 109 110
118 5 111 112
119 4 112 113
120 4 113 114
121 3 114 115
122 5 116 117
123 4 117 118
124 4 118 119
125 3 119 120
126 5 121 122
127 4 122 123
128 4 123 124
129 3 124 125
130 5 126 127
131 4 127 128
132 4 128 129
133 3 129 130
134 5 131 132
135 4 132 133
136 4 133 134
137 3 134 135
138 5 136 137
139 4 137 138
140 4 138 139
141 3 139 140
142 5 141 142
143 4 142 143
144 4 143 144
145 3 144 145
146 5 146 147
147 4 147 148
148 4 148 149
149 3 149 150
150 5 151 152
151 4 152 153
152 4 153 154
153 3 154 155
154 5 156 157
155 4 157 158
156 4 158 159
157 3 159 160
