# LAMMPS data file written by Ovito 3.0.0-dev349
160 atoms
134 bonds
6 atom types
12 bond types
-1.4245181085 1.4245181085 xlo xhi
-1.4245181085 1.4245181085 ylo yhi
-1.4245181085 1.4245181085 zlo zhi

Atoms # full

1 1 1 0.0 0.769125104 -0.364936471 0.1602609903 0 0 0
2 1 2 0.0 0.9938015342 -0.5079485774 0.5119123459 0 0 0
3 1 3 0.0 1.3740694523 -0.8059797287 0.6021289229 0 0 0
4 1 1 0.0 -1.4132034779 0.5106732845 1.3136415482 1 0 0
5 1 2 0.0 0.9527945518 0.3022048175 -1.3563826084 0 0 1
6 1 3 0.0 0.7151780725 0.1911461204 -0.9307924509 0 0 1
7 1 1 0.0 -1.3812383413 -1.3077670336 0.1613608748 1 0 0
8 1 2 0.0 -1.0141208172 1.3328467607 -0.1434132308 1 -1 0
9 1 3 0.0 -0.6770275235 1.0951989889 -0.1918507069 1 -1 0
10 1 1 0.0 0.8748381734 -1.0914077759 -0.6672181487 -1 0 0
11 1 2 0.0 0.7190243006 -0.7289450765 -0.8488842249 -1 0 0
12 1 3 0.0 0.7105647326 -0.3518024683 -0.9820684791 -1 0 0
13 1 1 0.0 -0.6584722996 0.3511154056 1.0681766272 0 0 0
14 1 2 0.0 -0.9089772701 0.5577105284 0.8240911365 0 0 0
15 1 3 0.0 -1.3029277325 0.8273161054 0.7546185255 0 0 0
16 1 1 0.0 0.6317278147 -0.3552247584 0.8589580655 -1 0 0
17 1 2 0.0 0.3380194008 0.0166363604 0.907412827 -1 0 0
18 1 3 0.0 -0.068114318 0.2018909901 1.1632101536 -1 0 0
19 1 1 0.0 0.1142354831 0.231453374 -1.1612081528 -1 0 1
20 1 2 0.0 0.4676084518 0.0957443565 1.398776412 -1 0 0
21 1 3 0.0 0.7642064095 0.2342536002 1.0400727987 -1 0 0
22 1 1 0.0 -1.1618539095 0.0862469897 -0.6453378201 1 0 1
23 1 2 0.0 -1.1581587791 -0.1871344149 -0.9930102825 1 0 1
24 1 3 0.0 -1.053756237 -0.2994076312 -1.3843706846 1 0 1
25 1 1 0.0 1.2325055599 -0.5418370366 0.0444564894 0 0 1
26 1 2 0.0 0.9176982641 -0.8538287282 -0.0069305408 0 0 1
27 1 3 0.0 0.5934329033 -1.1501142979 0.1746929735 0 0 1
28 1 1 0.0 0.2364235967 -0.7416787744 0.1362919211 0 0 0
29 1 2 0.0 0.4744958878 -0.7503268123 0.5397766829 0 0 0
30 1 3 0.0 0.8250318766 -0.9374088645 0.7927498817 0 0 0
31 1 1 0.0 -0.0842685401 -0.526468873 0.5140525103 0 1 0
32 1 2 0.0 0.263152808 -0.2715382874 0.3734634817 0 1 0
33 1 3 0.0 0.4177064896 0.0901558399 0.0964305475 0 1 0
34 1 1 0.0 -0.1544562727 1.3014887571 0.4491877854 0 -1 -1
35 1 2 0.0 -0.280385226 0.9489254355 0.807027936 0 -1 -1
36 1 3 0.0 -0.1960623115 0.747428894 1.2146351337 0 -1 -1
37 1 1 0.0 -0.4684874117 0.7670935392 0.213220641 0 0 0
38 1 2 0.0 -0.4291157722 0.4831651747 0.5913401842 0 0 0
39 1 3 0.0 -0.2997506857 -0.0114894193 0.7990875244 0 0 0
40 1 1 0.0 -0.2096776962 -1.0218913555 0.252979368 0 0 0
41 1 2 0.0 0.1258182228 -1.1348592043 0.5970523953 0 0 0
42 1 3 0.0 0.4669199884 -1.4149128199 0.7360475063 0 0 0
43 1 1 0.0 0.2329670191 -0.3278902173 -0.7238606215 0 0 0
44 1 2 0.0 0.1146910787 -0.7946859598 -0.5474529862 0 0 0
45 1 3 0.0 -0.0942213833 -1.03036654 -0.308872968 0 0 0
46 1 1 0.0 1.1360275745 -0.5712506175 1.0922250748 0 0 0
47 1 2 0.0 -1.2621905804 -0.6017618775 1.0353381634 1 0 0
48 1 3 0.0 -0.8152723908 -0.7357456684 1.2058039904 1 0 0
49 1 1 0.0 -0.9902276993 -1.0347908735 0.7648817897 0 1 0
50 1 2 0.0 -0.7425082922 -0.9999260902 0.3391905129 0 1 0
51 1 3 0.0 -0.5685459971 -1.2073683739 -0.0853688717 0 1 0
52 1 1 0.0 -0.611089468 -0.4947385788 0.6758553386 0 1 0
53 1 2 0.0 -0.8258763552 -0.2436275631 0.9476712346 0 1 0
54 1 3 0.0 -1.1157528162 0.053018827 1.0672367811 0 1 0
55 1 1 0.0 1.1929553747 -0.2181074023 -1.0483652353 -1 0 1
56 1 2 0.0 1.3101854324 -0.5391178131 -1.1573215723 -1 0 1
57 1 3 0.0 -1.1685090065 -0.8061282039 -1.3055942059 0 0 1
58 1 1 0.0 -0.6998414397 0.8595172167 -1.0785923004 0 0 0
59 1 2 0.0 -0.5528939366 1.2144678831 -0.7737610936 0 0 0
60 1 3 0.0 -0.2679835558 1.3641995192 -0.4193739593 0 0 0
61 1 4 0.0 1.0249830484 0.5028486848 0.16329211 0 0 0
62 1 2 0.0 1.1819490194 0.9038285017 0.3105348349 0 0 0
63 1 6 0.0 1.2233911753 1.205286622 0.5317741632 0 0 0
64 1 2 0.0 1.2934989929 -1.3592399359 0.8256524801 0 1 0
65 1 5 0.0 -1.4030020237 -1.0860534906 1.1590354443 1 1 0
66 1 4 0.0 1.1309827566 -0.0823248625 -0.5515717268 -1 0 0
67 1 2 0.0 1.083047986 -0.0326874815 -0.0960517898 -1 0 0
68 1 6 0.0 1.0860388279 -0.0035092719 0.2680992186 -1 0 0
69 1 2 0.0 1.2164615393 -0.0728272423 0.7875108123 -1 0 0
70 1 5 0.0 1.3041417599 -0.117313534 1.2635798454 -1 0 0
71 1 4 0.0 -0.8990079761 1.0583225489 0.4343525469 0 -1 0
72 1 2 0.0 -0.6416748762 1.4028501511 0.6464320421 0 -1 0
73 1 6 0.0 -0.4569264352 -1.0636862516 0.8491098285 0 0 0
74 1 2 0.0 -0.2697021365 -0.7306377292 0.979378581 0 0 0
75 1 5 0.0 0.0204235446 -0.4241455793 1.0891903639 0 0 0
76 1 4 0.0 -0.9599299431 0.241151005 -1.2470366955 0 0 0
77 1 2 0.0 -0.7132990956 0.3214315176 -0.9172838926 0 0 0
78 1 6 0.0 -0.4834009409 0.543943584 -0.577796936 0 0 0
79 1 2 0.0 -0.2587498724 0.7428468466 -0.2954728901 0 0 0
80 1 5 0.0 0.0230863988 1.0074914694 0.0320433863 0 0 0
81 1 4 0.0 -0.8331000209 -1.1188493967 -0.5801597834 0 1 0
82 1 2 0.0 -0.3918299675 -1.1150811911 -0.8210422397 0 1 0
83 1 6 0.0 0.0699253008 -1.1611793041 -0.9659003019 0 1 0
84 1 2 0.0 0.5277873278 -1.1186310053 -1.1248248816 0 1 0
85 1 5 0.0 1.0221207142 -1.1933138371 -1.3174277544 0 1 0
86 1 4 0.0 0.5123140216 -1.0146294832 -0.3022534847 0 1 0
87 1 2 0.0 0.3239687383 -1.3540135622 -0.5730386376 0 1 0
88 1 6 0.0 0.0150524825 1.1065564156 -0.7892167568 0 0 0
89 1 2 0.0 -0.196897164 0.7152810693 -0.9681894779 0 0 0
90 1 5 0.0 -0.4266435802 0.4213762581 -1.3225097656 0 0 0
91 1 4 0.0 0.5131323338 0.079003498 -0.457704246 0 0 0
92 1 2 0.0 0.6908079982 0.473436892 -0.2773130238 0 0 0
93 1 6 0.0 0.8896497488 0.9382041097 -0.119166255 0 0 0
94 1 2 0.0 0.9689606428 1.3247332573 0.0559868142 0 0 0
95 1 5 0.0 1.0470830202 -1.159883976 0.4167289734 0 1 0
96 1 4 0.0 -0.4208437502 -0.5703654885 0.1264469773 0 0 0
97 1 2 0.0 -0.6406815052 -0.0699867234 -0.0311113484 0 0 0
98 1 6 0.0 -0.8737735152 0.3840354979 -0.2579484284 0 0 0
99 1 2 0.0 -1.0431354046 0.6551046968 -0.5695297122 0 0 0
100 1 5 0.0 -1.2207077742 0.698992312 -1.028627634 0 0 0
101 1 4 0.0 -0.1898079067 -0.3487083614 -0.2845416963 0 0 0
102 1 2 0.0 -0.106363453 -0.0841700733 0.0426141992 0 0 0
103 1 6 0.0 -0.0113313356 0.2050959021 0.3889894187 0 0 0
104 1 2 0.0 0.0943051428 0.5984781981 0.705806613 0 0 0
105 1 5 0.0 0.2305049598 0.9883489013 0.8605651259 0 0 0
106 1 4 0.0 -1.1987485886 -0.4637767971 -0.2678661644 0 0 0
107 1 2 0.0 -0.8935153484 -0.3493302464 -0.4567031264 0 0 0
108 1 6 0.0 -0.6612985134 -0.2674377263 -0.7832609415 0 0 0
109 1 2 0.0 -0.5431206822 -0.1883514822 -1.1868746281 0 0 0
110 1 5 0.0 -0.4581283033 -0.1098018512 1.2626837492 0 0 -1
111 1 4 0.0 0.3725762367 -0.3531167209 -0.1991143972 -1 0 0
112 1 2 0.0 0.7850041389 -0.4634020627 -0.3841946721 -1 0 0
113 1 6 0.0 1.2488018274 -0.5938339233 -0.5927743912 -1 0 0
114 1 2 0.0 -1.106405735 -0.6890971065 -0.7926104665 0 0 0
115 1 5 0.0 -0.7349182963 -0.7844862342 -1.0631918907 0 0 0
116 1 4 0.0 1.2296267748 1.2315306664 -0.5658901334 -2 0 0
117 1 2 0.0 1.4091491699 1.0155168772 -0.2395708412 -2 0 0
118 1 6 0.0 -1.215996623 0.7303203344 0.073041223 -1 0 0
119 1 2 0.0 -0.9797159433 0.4071950316 0.2940969765 -1 0 0
120 1 5 0.0 -0.697763443 0.0489566401 0.507615447 -1 0 0
121 1 4 0.0 -1.1978298426 -0.8157266974 0.1627142429 1 0 0
122 1 2 0.0 -0.8280497193 -0.7886856198 -0.1392392218 1 0 0
123 1 6 0.0 -0.5059205294 -0.734567821 -0.469717294 1 0 0
124 1 2 0.0 -0.2090743333 -0.5906153917 -0.8839164972 1 0 0
125 1 5 0.0 -0.0103881024 -0.2698112428 -1.2143166065 1 0 0
126 1 4 0.0 0.6077743173 1.124455452 0.385365814 0 0 0
127 1 2 0.0 0.4756482542 0.7938962579 0.1214480773 0 0 0
128 1 6 0.0 0.1983790249 0.5439832807 -0.1497911513 0 0 0
129 1 2 0.0 -0.0161086172 0.2763749957 -0.4490261078 0 0 0
130 1 5 0.0 -0.2698223591 0.0830843076 -0.7331852317 0 0 0
131 1 4 0.0 0.6584193707 0.4893655479 0.5330968499 0 0 -1
132 1 2 0.0 0.92339468 0.8015545011 0.7891543508 0 0 -1
133 1 6 0.0 1.2253611088 1.0048601627 1.1088848114 0 0 -1
134 1 2 0.0 -1.333532691 1.1810803413 -1.3866024017 1 0 0
135 1 5 0.0 -1.2253744602 -1.3313815594 -1.2066978216 1 1 0
136 1 4 0.0 0.9292911887 0.8086407185 -0.6187359095 0 0 0
137 1 2 0.0 1.245687604 0.5794183612 -0.4358918965 0 0 0
138 1 6 0.0 -1.3433557749 0.2538715303 -0.156558454 1 0 0
139 1 2 0.0 -1.2560690641 -0.04655274 0.1312155575 1 0 0
140 1 5 0.0 -1.1845937967 -0.3693550527 0.413392961 1 0 0
141 1 4 0.0 0.5070279837 1.2934728861 -0.1306668818 -1 -1 0
142 1 2 0.0 0.4111041725 0.989790082 -0.4386570156 -1 -1 0
143 1 6 0.0 0.4355107546 0.783238709 -0.820664525 -1 -1 0
144 1 2 0.0 0.4461976588 0.6846458316 -1.3208351135 -1 -1 0
145 1 5 0.0 0.4179706275 0.5948339701 1.108910203 -1 -1 -1
146 1 4 0.0 -1.0019752979 0.7911009192 1.2394270897 0 -1 -1
147 1 2 0.0 -0.6389279962 1.0792535543 1.1987454891 0 -1 -1
148 1 6 0.0 -0.3281506896 1.3621371984 1.1592130661 0 -1 -1
149 1 2 0.0 6.223151e-04 -1.2142689228 1.1120388508 0 0 -1
150 1 5 0.0 0.3205961585 -0.8826226592 1.0689719915 0 0 -1
151 1 4 0.0 1.2460833788 0.3311840892 -0.9017370343 0 -1 1
152 1 2 0.0 1.093524456 0.7199908495 -1.0887392759 0 -1 1
153 1 6 0.0 0.7394574881 1.0759654045 -1.1439570189 0 -1 1
154 1 2 0.0 0.2935110331 1.2346092463 -1.2295064926 0 -1 1
155 1 5 0.0 -0.2051316053 1.3497413397 -1.2109150887 0 -1 1
156 1 4 0.0 0.417622149 -0.5584951043 -1.3130419254 1 0 0
157 1 2 0.0 -0.0369672216 -0.8539656401 -1.3512544632 1 0 0
158 1 6 0.0 -0.4282182455 -1.0364334583 -1.4031124115 1 0 0
159 1 2 0.0 -0.7932390571 -1.2791132927 1.2326920033 1 0 -1
160 1 5 0.0 -1.1088178158 1.2421489954 0.9944723248 1 -1 -1

Bonds

1 1 1 2
2 2 2 3
3 7 3 121
4 1 4 5
5 11 4 146
6 12 4 100
7 2 5 6
8 1 7 8
9 2 8 9
10 1 10 11
11 2 11 12
12 1 13 14
13 2 14 15
14 8 15 160
15 1 16 17
16 2 17 18
17 1 19 20
18 2 20 21
19 8 21 75
20 1 22 23
21 2 23 24
22 1 25 26
23 11 25 106
24 2 26 27
25 7 27 141
26 1 28 29
27 2 29 30
28 1 31 32
29 2 32 33
30 1 34 35
31 2 35 36
32 1 37 38
33 2 38 39
34 8 39 110
35 1 40 41
36 11 40 96
37 2 41 42
38 8 42 105
39 7 42 126
40 1 43 44
41 2 44 45
42 1 46 47
43 2 47 48
44 1 49 50
45 2 50 51
46 1 52 53
47 2 53 54
48 1 55 56
49 11 55 66
50 2 56 57
51 8 57 65
52 8 57 135
53 1 58 59
54 2 59 60
55 5 61 62
56 4 62 63
57 4 63 64
58 3 64 65
59 5 66 67
60 4 67 68
61 4 68 69
62 3 69 70
63 5 71 72
64 4 72 73
65 4 73 74
66 3 74 75
67 5 76 77
68 4 77 78
69 4 78 79
70 3 79 80
71 5 81 82
72 4 82 83
73 4 83 84
74 3 84 85
75 5 86 87
76 4 87 88
77 4 88 89
78 3 89 90
79 5 91 92
80 4 92 93
81 4 93 94
82 3 94 95
83 5 96 97
84 4 97 98
85 4 98 99
86 3 99 100
87 5 101 102
88 4 102 103
89 4 103 104
90 3 104 105
91 5 106 107
92 4 107 108
93 4 108 109
94 3 109 110
95 5 111 112
96 4 112 113
97 4 113 114
98 3 114 115
99 5 116 117
100 4 117 118
101 4 118 119
102 3 119 120
103 5 121 122
104 4 122 123
105 4 123 124
106 3 124 125
107 5 126 127
108 4 127 128
109 4 128 129
110 3 129 130
111 5 131 132
112 4 132 133
113 4 133 134
114 3 134 135
115 5 136 137
116 4 137 138
117 4 138 139
118 3 139 140
119 5 141 142
120 4 142 143
121 4 143 144
122 3 144 145
123 5 146 147
124 4 147 148
125 4 148 149
126 3 149 150
127 5 151 152
128 4 152 153
129 4 153 154
130 3 154 155
131 5 156 157
132 4 157 158
133 4 158 159
134 3 159 160
