# LAMMPS data file written by Ovito 3.0.0-dev349
160 atoms
160 bonds
6 atom types
12 bond types
-1.4429016115 1.4429016115 xlo xhi
-1.4429016115 1.4429016115 ylo yhi
-1.4429016115 1.4429016115 zlo zhi

Atoms # full

1 1 1 0.0 1.2386612892 -0.2127222419 0.6482415199 0 0 0
2 1 2 0.0 -1.3803687096 -0.3476932049 0.1382763982 1 0 0
3 1 3 0.0 -1.0718774796 -0.664142251 -0.1284264624 1 0 0
4 1 1 0.0 -0.8692999482 0.8725479841 -0.9879826307 1 0 1
5 1 2 0.0 -1.2992521524 0.8696039915 -1.3635804653 1 0 1
6 1 3 0.0 1.1851916313 0.9791284204 1.4119201899 0 0 0
7 1 1 0.0 -0.2473154366 0.1367844194 0.3672870398 1 -1 0
8 1 2 0.0 -0.4070296884 -0.0597865917 0.6743462682 1 -1 0
9 1 3 0.0 -0.5217168927 -0.0192428362 1.1373106241 1 -1 0
10 1 1 0.0 1.375208497 1.2675565481 -0.3158152103 -1 -1 0
11 1 2 0.0 1.1514093876 -1.3491815329 -0.6794451475 -1 0 0
12 1 3 0.0 1.1005115509 -1.2321335077 -1.1368951797 -1 0 0
13 1 1 0.0 -1.2640565634 -0.6135696173 0.6312077641 0 0 0
14 1 2 0.0 -1.1109571457 -0.1377541274 0.5843450427 0 0 0
15 1 3 0.0 -1.1957027912 0.3053073287 0.3000626564 0 0 0
16 1 1 0.0 -0.8299040198 -0.8079510331 -1.0603530407 -1 0 1
17 1 2 0.0 -0.5505959988 -0.4638823271 -1.2014801502 -1 0 1
18 1 3 0.0 -0.3430027664 -0.0856519639 -1.0907287598 -1 0 1
19 1 1 0.0 0.4536075294 -1.3125814199 -0.585793376 -1 0 1
20 1 2 0.0 0.5956422091 -1.1054331064 -0.8616621494 -1 0 1
21 1 3 0.0 0.4852771759 -0.7945497036 -1.2329963446 -1 0 1
22 1 1 0.0 1.1030004025 0.5179038644 -0.6204349995 0 0 1
23 1 2 0.0 1.056994319 0.5925720334 -1.0964683294 0 0 1
24 1 3 0.0 1.2516678572 0.4555374086 1.3365212679 0 0 0
25 1 1 0.0 1.1159771681 0.0051976927 0.2212124616 0 0 1
26 1 2 0.0 1.0331106186 -0.4546111822 0.2347099334 0 0 1
27 1 3 0.0 1.2000300884 -0.8472608328 0.1346951127 0 0 1
28 1 1 0.0 0.5919748545 -0.8971918821 0.0319297388 0 0 0
29 1 2 0.0 0.479865849 -0.6475192904 0.5053813457 0 0 0
30 1 3 0.0 0.1963681132 -0.4823628962 0.7588220835 0 0 0
31 1 1 0.0 -0.2032373399 -0.4703246057 1.2280336618 0 1 0
32 1 2 0.0 -0.021885084 -0.0406071842 1.0178354979 0 1 0
33 1 3 0.0 -0.1743820906 0.3619746268 0.8805750012 0 1 0
34 1 1 0.0 0.3640224934 0.452031821 1.0525666475 0 -1 -1
35 1 2 0.0 0.590841651 0.1048484221 1.1121661663 0 -1 -1
36 1 3 0.0 0.9633678794 -0.0105994754 1.1851397753 0 -1 -1
37 1 1 0.0 0.7711753249 1.2557342052 0.8352410793 0 0 0
38 1 2 0.0 0.2973451912 0.9908652902 0.9471042156 0 0 0
39 1 3 0.0 -0.1363160908 0.9782662392 0.8137458563 0 0 0
40 1 1 0.0 0.3754834235 -1.1776676178 0.459761709 0 0 0
41 1 2 0.0 0.2054257393 1.3166948557 0.471422106 0 -1 0
42 1 3 0.0 0.1626710296 1.0109785795 0.2969949245 0 -1 0
43 1 1 0.0 0.0681115761 -1.0207403898 -0.860745728 0 0 0
44 1 2 0.0 -0.3353320062 -1.2860350609 -0.7636048794 0 0 0
45 1 3 0.0 -0.5248062611 1.1682577133 -0.6718320251 0 -1 0
46 1 1 0.0 -0.1429256648 -1.0994926691 0.5872145295 1 0 0
47 1 2 0.0 -0.5490682125 -0.8538306952 0.8070911765 1 0 0
48 1 3 0.0 -0.8245378137 -0.7948377728 1.1438360214 1 0 0
49 1 1 0.0 -0.845867455 -0.5662690997 0.3702886403 0 1 0
50 1 2 0.0 -0.4984047711 -0.8814801574 0.0916645974 0 1 0
51 1 3 0.0 -0.2403901666 -0.9635530114 -0.3050709069 0 1 0
52 1 1 0.0 -1.2369242907 0.782289505 0.8637511134 0 1 0
53 1 2 0.0 -1.2143969536 1.1511176825 1.0675599575 0 1 0
54 1 3 0.0 -0.9293180704 -1.3943476677 1.1517776251 0 2 0
55 1 1 0.0 1.283569932 -0.5802055597 -0.981539011 -1 0 1
56 1 2 0.0 1.2042615414 -0.6539357305 -1.3608291149 -1 0 1
57 1 3 0.0 1.0504641533 -0.8717868328 1.1847553253 -1 0 0
58 1 1 0.0 -1.4011505842 0.9038630128 -0.8412610292 0 0 0
59 1 2 0.0 -1.1546200514 1.2826455832 -1.0668976307 0 0 0
60 1 3 0.0 -0.7659858465 -1.3316754103 -1.0898207426 0 1 0
61 1 4 0.0 -1.2740410566 0.7592943907 -0.3187520504 1 0 0
62 1 2 0.0 -1.2290136814 0.8155544996 0.1113461629 1 0 0
63 1 6 0.0 -1.2099386454 1.1507344246 0.4137859046 1 0 0
64 1 2 0.0 -1.2801139355 -1.3752307892 0.6767041683 1 1 0
65 1 5 0.0 1.4196820259 -1.0691640377 0.8818013668 0 1 0
66 1 4 0.0 0.9829493165 -0.1912712604 -0.7194353938 -1 0 0
67 1 2 0.0 0.7634094954 -3.458525e-04 -0.3828166723 -1 0 0
68 1 6 0.0 0.6743673682 0.2136614323 0.050958477 -1 0 0
69 1 2 0.0 0.7856342793 0.4225538075 0.4707085192 -1 0 0
70 1 5 0.0 1.0037243366 0.4778784513 0.8919712305 -1 0 0
71 1 4 0.0 -0.8683729768 0.7039783597 0.4827003479 0 -1 0
72 1 2 0.0 -0.6798202395 1.064393878 0.7231417894 0 -1 0
73 1 6 0.0 -0.4493834674 -1.4246989489 0.8862508535 0 0 0
74 1 2 0.0 -0.1406543106 -1.137121439 1.0928509235 0 0 0
75 1 5 0.0 0.1681766212 -0.9311308861 1.2879457474 0 0 0
76 1 4 0.0 0.2488257736 0.7940051556 1.4357343912 0 0 -1
77 1 2 0.0 0.163981095 1.0337843895 -1.1629428864 0 0 0
78 1 6 0.0 0.053691972 1.2425698042 -0.8231303096 0 0 0
79 1 2 0.0 0.005956735 1.3723437786 -0.4046572447 0 0 0
80 1 5 0.0 -0.06944336 -1.2833974361 0.0724818334 0 1 0
81 1 4 0.0 0.8668413758 -1.2537587881 0.3944440782 -1 1 0
82 1 2 0.0 1.3376544714 -1.4139001369 0.2022066414 -1 1 0
83 1 6 0.0 -1.1252949238 -1.4136582613 -0.0213906281 0 1 0
84 1 2 0.0 -0.8490787148 -1.3018193245 -0.1972530186 0 1 0
85 1 5 0.0 -0.6847423315 -1.0829894543 -0.5710455179 0 1 0
86 1 4 0.0 0.5032504201 1.4013267756 -0.0778565407 0 0 0
87 1 2 0.0 0.3493728638 0.9344806671 -0.2674539387 0 0 0
88 1 6 0.0 0.0827860534 0.7598031759 -0.6108750701 0 0 0
89 1 2 0.0 -0.0980701968 0.6058584452 -1.0035047531 0 0 0
90 1 5 0.0 -0.3180542886 0.3175486624 -1.4391618967 0 0 0
91 1 4 0.0 -0.3222424388 0.0117563438 -0.5831999183 0 0 0
92 1 2 0.0 -0.1049676612 0.2441149652 -0.1624541283 0 0 0
93 1 6 0.0 0.2062759697 0.4833780229 0.0227585118 0 0 0
94 1 2 0.0 0.6538084149 0.748706162 0.1202007234 0 0 0
95 1 5 0.0 1.0537853241 0.9944550991 0.0105472496 0 0 0
96 1 4 0.0 0.0525028706 -0.7854241729 0.2584570646 0 0 0
97 1 2 0.0 -0.249593094 -0.4013375342 0.1653273255 0 0 0
98 1 6 0.0 -0.5413381457 -0.1330285668 -0.0045709801 0 0 0
99 1 2 0.0 -0.7812275887 0.1035309434 -0.3336552978 0 0 0
100 1 5 0.0 -0.9072892666 0.491553694 -0.6077747941 0 0 0
101 1 4 0.0 0.2566629052 -0.7363120914 -0.4556341767 0 0 0
102 1 2 0.0 0.334092021 -0.4788500369 -0.076263912 0 0 0
103 1 6 0.0 0.3250921369 -0.1407646239 0.2375082523 0 0 0
104 1 2 0.0 0.2996723354 0.1764676273 0.5172932744 0 0 0
105 1 5 0.0 0.2700548768 0.6188486814 0.5450763106 0 0 0
106 1 4 0.0 1.3204697371 0.1253601909 -0.2190253437 -1 0 0
107 1 2 0.0 -1.3700658083 0.2186210155 -0.6425697803 0 0 0
108 1 6 0.0 -1.164355278 0.4170952737 -1.0529321432 0 0 0
109 1 2 0.0 -0.8606909513 0.5663323998 1.4231600761 0 0 -1
110 1 5 0.0 -0.5014906526 0.797765851 1.1707792282 0 0 -1
111 1 4 0.0 0.9283020496 -0.6761133075 -0.2691656649 -1 0 0
112 1 2 0.0 1.3620023727 -0.4948854446 -0.4872405827 -1 0 0
113 1 6 0.0 -1.2481882572 -0.3472803533 -0.7656608224 0 0 0
114 1 2 0.0 -1.2181667089 -0.1402096003 -1.0966544151 0 0 0
115 1 5 0.0 -1.3640851974 0.0654031783 -1.409741044 0 0 0
116 1 4 0.0 -1.2277438641 -0.9748028517 0.2395399809 -1 1 0
117 1 2 0.0 -0.8810514808 -1.1411724091 0.36640957 -1 1 0
118 1 6 0.0 -0.6059827209 -1.3653923273 0.3682764769 -1 1 0
119 1 2 0.0 -0.3147475719 1.1866848469 0.3422199488 -1 0 0
120 1 5 0.0 -0.2267609239 0.6170693636 0.4179443419 -1 0 0
121 1 4 0.0 -0.6353726983 -0.5646268725 -0.4604635239 1 0 0
122 1 2 0.0 -0.2504701614 -0.5211972594 -0.7683777213 1 0 0
123 1 6 0.0 0.094222106 -0.4796856642 -1.1910283566 1 0 0
124 1 2 0.0 0.4205252528 -0.4312145114 1.2473695278 1 0 -1
125 1 5 0.0 0.762031734 -0.374116987 0.9061320424 1 0 -1
126 1 4 0.0 -0.2309384197 0.8677308559 -0.1386126131 0 0 0
127 1 2 0.0 -0.4146074653 0.6855548024 -0.5365845561 0 0 0
128 1 6 0.0 -0.6536172032 0.3495469093 -0.9996117949 0 0 0
129 1 2 0.0 -0.8184636235 0.0497664474 -1.3299086094 0 0 0
130 1 5 0.0 -0.8993522525 -0.2885740995 1.2847772837 0 0 -1
131 1 4 0.0 0.7261222005 -0.2811947167 -1.2807632685 0 0 0
132 1 2 0.0 0.7448217273 0.2184731215 -1.3263694048 0 0 0
133 1 6 0.0 0.7117894292 0.6517603397 -1.4413679838 0 0 0
134 1 2 0.0 0.6489203572 1.1160826683 1.3643832207 0 0 -1
135 1 5 0.0 0.7901679873 -1.2947746515 1.3330552578 0 1 -1
136 1 4 0.0 -1.3211981058 -0.996011436 -0.8045743108 1 1 0
137 1 2 0.0 -1.1269997358 -1.3788930178 -0.6399169564 1 1 0
138 1 6 0.0 -0.9477832913 1.140222311 -0.4118273556 1 0 0
139 1 2 0.0 -0.7830893397 0.7641370296 -0.1643421948 1 0 0
140 1 5 0.0 -0.5925903916 0.4052358568 0.0766825303 1 0 0
141 1 4 0.0 0.9996422529 -1.2621625662 -0.1320702285 -1 0 0
142 1 2 0.0 0.8540517688 1.2321183681 -0.4040259123 -1 -1 0
143 1 6 0.0 0.7086511254 0.8453783393 -0.6527407765 -1 -1 0
144 1 2 0.0 0.5136214495 0.4920631945 -0.9155816436 -1 -1 0
145 1 5 0.0 0.1448216736 0.1287245601 -1.1206129789 -1 -1 0
146 1 4 0.0 -0.4091715217 1.0738545656 -1.2861530781 0 -1 0
147 1 2 0.0 -0.0369879529 1.2700017691 1.3178926706 0 -1 -1
148 1 6 0.0 0.3261946738 -1.363378644 1.0269486904 0 0 -1
149 1 2 0.0 0.6851412654 -0.9870247841 0.8157610297 0 0 -1
150 1 5 0.0 1.0923535824 -0.7631886005 0.6632826328 0 0 -1
151 1 4 0.0 1.0005140305 1.1226980686 -0.9747200012 0 -1 1
152 1 2 0.0 0.7360312343 1.2366813421 -1.0211193562 0 -1 1
153 1 6 0.0 0.3388307989 -1.3888663054 -1.1836056709 0 0 1
154 1 2 0.0 -0.1319847703 -1.1912533045 -1.2683960199 0 0 1
155 1 5 0.0 -0.4416451454 -0.9948809743 -1.3698273897 0 0 1
156 1 4 0.0 -1.2245714664 -0.9676055908 -1.3099024296 1 0 0
157 1 2 0.0 -1.4422785044 -1.2153654099 1.3543829918 1 0 -1
158 1 6 0.0 1.2253204584 1.3820970058 0.9991441965 0 -1 -1
159 1 2 0.0 1.1638029814 0.9830004573 0.6708701849 0 -1 -1
160 1 5 0.0 1.272597909 0.6007500291 0.4804475009 0 -1 -1

Bonds

1 1 1 2
2 12 1 125
3 2 2 3
4 7 3 121
5 1 4 5
6 11 4 146
7 12 4 100
8 2 5 6
9 1 7 8
10 12 7 140
11 12 7 120
12 2 8 9
13 8 9 90
14 1 10 11
15 12 10 95
16 2 11 12
17 1 13 14
18 12 13 150
19 2 14 15
20 8 15 160
21 7 15 71
22 1 16 17
23 12 16 85
24 11 16 156
25 2 17 18
26 8 18 145
27 7 18 91
28 1 19 20
29 2 20 21
30 8 21 75
31 7 21 131
32 1 22 23
33 2 23 24
34 8 24 70
35 8 24 115
36 1 25 26
37 11 25 106
38 2 26 27
39 7 27 141
40 7 27 116
41 1 28 29
42 11 28 111
43 11 28 86
44 2 29 30
45 1 31 32
46 2 32 33
47 1 34 35
48 11 34 76
49 2 35 36
50 1 37 38
51 2 38 39
52 8 39 110
53 1 40 41
54 11 40 96
55 11 40 81
56 2 41 42
57 8 42 105
58 7 42 126
59 1 43 44
60 11 43 101
61 2 44 45
62 1 46 47
63 12 46 80
64 2 47 48
65 8 48 130
66 8 48 155
67 1 49 50
68 2 50 51
69 1 52 53
70 2 53 54
71 1 55 56
72 11 55 66
73 11 55 136
74 2 56 57
75 8 57 65
76 8 57 135
77 1 58 59
78 11 58 61
79 11 58 151
80 2 59 60
81 5 61 62
82 4 62 63
83 4 63 64
84 3 64 65
85 5 66 67
86 4 67 68
87 4 68 69
88 3 69 70
89 5 71 72
90 4 72 73
91 4 73 74
92 3 74 75
93 5 76 77
94 4 77 78
95 4 78 79
96 3 79 80
97 5 81 82
98 4 82 83
99 4 83 84
100 3 84 85
101 5 86 87
102 4 87 88
103 4 88 89
104 3 89 90
105 5 91 92
106 4 92 93
107 4 93 94
108 3 94 95
109 5 96 97
110 4 97 98
111 4 98 99
112 3 99 100
113 5 101 102
114 4 102 103
115 4 103 104
116 3 104 105
117 5 106 107
118 4 107 108
119 4 108 109
120 3 109 110
121 5 111 112
122 4 112 113
123 4 113 114
124 3 114 115
125 5 116 117
126 4 117 118
127 4 118 119
128 3 119 120
129 5 121 122
130 4 122 123
131 4 123 124
132 3 124 125
133 5 126 127
134 4 127 128
135 4 128 129
136 3 129 130
137 5 131 132
138 4 132 133
139 4 133 134
140 3 134 135
141 5 136 137
142 4 137 138
143 4 138 139
144 3 139 140
145 5 141 142
146 4 142 143
147 4 143 144
148 3 144 145
149 5 146 147
150 4 147 148
151 4 148 149
152 3 149 150
153 5 151 152
154 4 152 153
155 4 153 154
156 3 154 155
157 5 156 157
158 4 157 158
159 4 158 159
160 3 159 160
