# LAMMPS data file written by Ovito 3.0.0-dev349
160 atoms
160 bonds
6 atom types
12 bond types
-1.4392112495 1.4392112495 xlo xhi
-1.4392112495 1.4392112495 ylo yhi
-1.4392112495 1.4392112495 zlo zhi

Atoms # full

1 1 1 0.0 1.0580191612 -0.1237177104 0.5714401007 0 0 0
2 1 2 0.0 -1.4207056761 -0.379052192 0.2578263879 1 0 0
3 1 3 0.0 -1.1422343254 -0.363951385 -0.1903694719 1 0 0
4 1 1 0.0 -0.7402083874 0.8745094538 -1.1765453815 1 0 1
5 1 2 0.0 -1.1672847271 0.9318107963 -1.4240620136 1 0 1
6 1 3 0.0 1.2404104471 0.9948161244 -1.4195779562 0 0 1
7 1 1 0.0 -0.2510418594 0.242094785 0.3484560251 1 -1 0
8 1 2 0.0 -0.4382269084 -0.010398455 0.6988959312 1 -1 0
9 1 3 0.0 -0.501496017 -0.0293823481 1.0692456961 1 -1 0
10 1 1 0.0 1.3247462511 1.2498319149 -0.2644338906 -1 -1 0
11 1 2 0.0 1.1317461729 -1.3334487677 -0.6314993501 -1 0 0
12 1 3 0.0 1.1074467897 -1.2170891762 -1.0565698147 -1 0 0
13 1 1 0.0 -1.256264925 -0.405682534 0.7454698682 0 0 0
14 1 2 0.0 -1.0920889378 -0.0691914707 0.4397110343 0 0 0
15 1 3 0.0 -1.127286315 0.3276046813 0.2753589749 0 0 0
16 1 1 0.0 -0.840990603 -0.8181117773 -0.9815455079 -1 0 1
17 1 2 0.0 -0.5949724317 -0.5322703719 -1.1446986198 -1 0 1
18 1 3 0.0 -0.3332867026 -0.1608215868 -1.1305618286 -1 0 1
19 1 1 0.0 0.542712152 -1.2127895355 -0.4951827824 -1 0 1
20 1 2 0.0 0.6015590429 -0.8788791895 -0.7576501369 -1 0 1
21 1 3 0.0 0.6474817395 -0.7203702331 -1.2044867277 -1 0 1
22 1 1 0.0 1.021127224 0.5436858535 -0.6109759212 0 0 1
23 1 2 0.0 1.1261680126 0.5977075696 -1.1280915737 0 0 1
24 1 3 0.0 1.3272355795 0.4850347042 1.3672368526 0 0 0
25 1 1 0.0 1.1924935579 -0.0416667126 -0.0117554273 0 0 1
26 1 2 0.0 0.9772818685 -0.4930490255 0.1070756763 0 0 1
27 1 3 0.0 1.0883808136 -0.9085156322 0.2566689253 0 0 1
28 1 1 0.0 0.5937105417 -0.9228481054 0.0713350922 0 0 0
29 1 2 0.0 0.615242362 -0.7228750587 0.4368278384 0 0 0
30 1 3 0.0 0.3851724565 -0.4509646893 0.7342430353 0 0 0
31 1 1 0.0 -0.1641997099 -0.6693031788 1.3114901781 0 1 0
32 1 2 0.0 -0.0473416708 -0.2654833496 1.2892974615 0 1 0
33 1 3 0.0 0.20190759 0.0094524007 1.0913697481 0 1 0
34 1 1 0.0 0.3058203459 0.4408863187 0.9123376012 0 -1 -1
35 1 2 0.0 0.6576689482 0.1448061019 0.9805637598 0 -1 -1
36 1 3 0.0 1.1219320297 0.0336154178 1.1163758039 0 -1 -1
37 1 1 0.0 0.7741786838 0.9945178628 0.9630109072 0 0 0
38 1 2 0.0 0.4353645742 0.9562268853 0.7775979638 0 0 0
39 1 3 0.0 -0.088204056 0.9847713113 0.7700888515 0 0 0
40 1 1 0.0 0.2627635598 -1.1307868958 0.6022588611 0 0 0
41 1 2 0.0 0.0923582762 1.4290691614 0.4531420469 0 -1 0
42 1 3 0.0 0.1179326102 1.0376470089 0.2375726402 0 -1 0
43 1 1 0.0 0.0563554503 -1.0206570625 -0.6387760639 0 0 0
44 1 2 0.0 -0.3798909485 -1.1884582043 -0.6672545075 0 0 0
45 1 3 0.0 -0.5552680492 1.3404004574 -0.6649201512 0 -1 0
46 1 1 0.0 -0.3504008055 -0.9369300008 0.5930247307 1 0 0
47 1 2 0.0 -0.708748579 -0.922380805 0.7337516546 1 0 0
48 1 3 0.0 -0.9487588406 -0.8307679892 1.1413642168 1 0 0
49 1 1 0.0 -0.9095677733 -0.5488321185 0.3165216446 0 1 0
50 1 2 0.0 -0.6633084416 -0.8117825985 0.0663717017 0 1 0
51 1 3 0.0 -0.2693829834 -0.8106466532 -0.2196993083 0 1 0
52 1 1 0.0 -1.2058455944 0.4988743961 0.8568435311 0 1 0
53 1 2 0.0 -1.0838634968 0.9867030978 0.9548873901 0 1 0
54 1 3 0.0 -0.795846045 1.2939932346 1.1578629017 0 1 0
55 1 1 0.0 1.2259552479 -0.5901229978 -1.0073872805 -1 0 1
56 1 2 0.0 1.1444561481 -0.5857492685 -1.3090463877 -1 0 1
57 1 3 0.0 1.0282475948 -0.8033486605 1.2571980953 -1 0 0
58 1 1 0.0 -1.3676646948 0.8977047801 -0.8838931918 0 0 0
59 1 2 0.0 -0.9853279591 1.3108443022 -1.0162811279 0 0 0
60 1 3 0.0 -0.5912680626 -1.3813565969 -1.1618055105 0 1 0
61 1 4 0.0 -1.346990943 0.7556279302 -0.3541326523 1 0 0
62 1 2 0.0 -1.2726931572 0.9117479324 0.0491576456 1 0 0
63 1 6 0.0 -1.123670578 1.1357334852 0.4546508491 1 0 0
64 1 2 0.0 -1.1880346537 -1.3767960072 0.7389482856 1 1 0
65 1 5 0.0 -1.4167655706 -1.0332648754 0.9670974016 1 1 0
66 1 4 0.0 0.9628131986 -0.2829705775 -0.6543383598 -1 0 0
67 1 2 0.0 0.7335684896 -0.0026937493 -0.3131387234 -1 0 0
68 1 6 0.0 0.705389142 0.2288103104 -0.0174674839 -1 0 0
69 1 2 0.0 0.8711742759 0.3993799984 0.4186991751 -1 0 0
70 1 5 0.0 1.0881327391 0.4795557559 0.903060317 -1 0 0
71 1 4 0.0 -0.8488336802 0.7033644915 0.4693377614 0 -1 0
72 1 2 0.0 -0.6443012953 1.0761791468 0.7552975416 0 -1 0
73 1 6 0.0 -0.3450887501 1.3971811533 0.8827055693 0 -1 0
74 1 2 0.0 -0.0439894162 -1.1887923479 1.0479842424 0 0 0
75 1 5 0.0 0.2557989955 -0.963607192 1.3619908094 0 0 0
76 1 4 0.0 0.1982900649 0.7391245365 1.3451082706 0 0 -1
77 1 2 0.0 0.1127481461 1.0502775908 -1.0725097656 0 0 0
78 1 6 0.0 0.0116404481 1.2870436907 -0.6720921397 0 0 0
79 1 2 0.0 -0.1123997793 -1.3779950142 -0.2192654759 0 1 0
80 1 5 0.0 -0.2404045761 -1.1905245781 0.1681268662 0 1 0
81 1 4 0.0 0.7315738201 -1.3286936283 0.4741389453 -1 1 0
82 1 2 0.0 1.1824499369 -1.4296501875 0.3823801577 -1 1 0
83 1 6 0.0 -1.3808790445 -1.390168786 0.1793973297 0 1 0
84 1 2 0.0 -1.087667942 -1.2329411507 -0.0951960906 0 1 0
85 1 5 0.0 -0.92683357 -0.9227930307 -0.4940024614 0 1 0
86 1 4 0.0 0.3966033459 -1.4218072891 0.0079058427 0 1 0
87 1 2 0.0 0.2935296297 1.0492255688 -0.2797335684 0 0 0
88 1 6 0.0 0.1047817245 0.7019693255 -0.6544342041 0 0 0
89 1 2 0.0 -0.1051005125 0.5229808688 -1.0486030579 0 0 0
90 1 5 0.0 -0.2907496989 0.2633458376 1.406966567 0 0 -1
91 1 4 0.0 -0.3152456284 -0.0168745928 -0.644836545 0 0 0
92 1 2 0.0 -0.097204417 0.2250612229 -0.32953915 0 0 0
93 1 6 0.0 0.2253538072 0.4266092181 -0.05493287 0 0 0
94 1 2 0.0 0.6215958595 0.7449807525 0.0523051992 0 0 0
95 1 5 0.0 0.9950682521 0.9599087238 -0.0493970662 0 0 0
96 1 4 0.0 0.0696544275 -0.7187438011 0.3410691023 0 0 0
97 1 2 0.0 -0.236242637 -0.4139770269 0.1402362734 0 0 0
98 1 6 0.0 -0.5561534166 -0.1267299652 -0.0928200781 0 0 0
99 1 2 0.0 -0.840308845 0.2280068099 -0.4204334319 0 0 0
100 1 5 0.0 -0.8940726519 0.5897548795 -0.748085618 0 0 0
101 1 4 0.0 0.2743436396 -0.7118742466 -0.2522173226 0 0 0
102 1 2 0.0 0.3744954467 -0.4077248275 0.0418862291 0 0 0
103 1 6 0.0 0.3810511231 -0.0577818304 0.2650042474 0 0 0
104 1 2 0.0 0.3364576101 0.2530996799 0.4044039249 0 0 0
105 1 5 0.0 0.2837011814 0.5619756579 0.4465453625 0 0 0
106 1 4 0.0 1.3474692106 0.1422398984 -0.497741878 -1 0 0
107 1 2 0.0 -1.3280246258 0.2864815891 -0.8384672999 0 0 0
108 1 6 0.0 -1.0987594128 0.4487444758 -1.1914522648 0 0 0
109 1 2 0.0 -0.7632693052 0.5445001721 1.3198578358 0 0 -1
110 1 5 0.0 -0.4239558578 0.6789150834 1.0830514431 0 0 -1
111 1 4 0.0 0.9025954604 -0.7867004871 -0.3127940297 -1 0 0
112 1 2 0.0 1.2543700933 -0.631057024 -0.4323225915 -1 0 0
113 1 6 0.0 -1.2753312588 -0.4450785816 -0.7021250725 0 0 0
114 1 2 0.0 -1.1938413382 -0.248476401 -1.0206646919 0 0 0
115 1 5 0.0 -1.3358726501 0.0285196137 -1.3929153681 0 0 0
116 1 4 0.0 -1.2899159193 -0.9098056555 0.3548886776 -1 1 0
117 1 2 0.0 -1.0155351162 -1.0536994934 0.3686684966 -1 1 0
118 1 6 0.0 -0.6562358141 -1.4089306593 0.3489747047 -1 1 0
119 1 2 0.0 -0.3936004341 1.1252782345 0.3228764236 -1 0 0
120 1 5 0.0 -0.2790360451 0.7106557488 0.3700746894 -1 0 0
121 1 4 0.0 -0.664860785 -0.4654989243 -0.4763920009 1 0 0
122 1 2 0.0 -0.2021043152 -0.5626980066 -0.7392188311 1 0 0
123 1 6 0.0 0.1454858929 -0.5713654757 -1.0898653269 1 0 0
124 1 2 0.0 0.4717309475 -0.4687214792 1.2966951132 1 0 -1
125 1 5 0.0 0.7920988202 -0.3522666395 0.9494675398 1 0 -1
126 1 4 0.0 -0.2017782331 0.8991034031 -0.2083384693 0 0 0
127 1 2 0.0 -0.4170351326 0.6437541842 -0.6526885033 0 0 0
128 1 6 0.0 -0.5665386915 0.3090443909 -1.0242509842 0 0 0
129 1 2 0.0 -0.7743111253 0.0500498079 -1.3413963318 0 0 0
130 1 5 0.0 -0.9365701675 -0.3602470458 1.2925630808 0 0 -1
131 1 4 0.0 0.7321297526 -0.1759963334 -1.2650375366 0 0 0
132 1 2 0.0 0.7722914219 0.2153080553 -1.3264456987 0 0 0
133 1 6 0.0 0.7345260978 0.6772954464 1.4250588417 0 0 -1
134 1 2 0.0 0.6833350658 1.1431691647 1.4361641407 0 0 -1
135 1 5 0.0 0.7503313422 -1.2488063574 -1.4215531349 0 1 0
136 1 4 0.0 -1.3653675318 -0.9386481643 -0.7978850007 1 1 0
137 1 2 0.0 -1.2338901758 -1.3115086555 -0.6290035248 1 1 0
138 1 6 0.0 -1.0145494938 1.1311625242 -0.4988786876 1 0 0
139 1 2 0.0 -0.7897585034 0.7497007251 -0.261275202 1 0 0
140 1 5 0.0 -0.5162129998 0.4282907248 -0.0418762118 1 0 0
141 1 4 0.0 0.9488855004 -1.2781537771 -0.0716519207 -1 0 0
142 1 2 0.0 0.7576551437 1.2095611095 -0.451954931 -1 -1 0
143 1 6 0.0 0.6261154413 0.8229279518 -0.7471846342 -1 -1 0
144 1 2 0.0 0.4078511298 0.4102657735 -1.0658533573 -1 -1 0
145 1 5 0.0 0.1534923464 0.0469908528 -1.2213369608 -1 -1 0
146 1 4 0.0 -0.2662601471 0.9659533501 -1.3998993635 0 -1 0
147 1 2 0.0 0.1082937494 1.2311800718 1.2908428907 0 -1 -1
148 1 6 0.0 0.4693186283 -1.3856348991 1.0322623253 0 0 -1
149 1 2 0.0 0.7553293705 -1.0088711977 0.8724401593 0 0 -1
150 1 5 0.0 1.1304430962 -0.6933363676 0.7590070963 0 0 -1
151 1 4 0.0 1.0393711329 1.1159851551 -0.9413090348 0 -1 1
152 1 2 0.0 0.6358021498 1.3692082167 -0.9094001055 0 -1 1
153 1 6 0.0 0.247806564 -1.3013340235 -1.0418374538 0 0 1
154 1 2 0.0 -0.1406010389 -1.142249465 -1.2552886009 0 0 1
155 1 5 0.0 -0.5627043247 -1.0092400312 1.4012544155 0 0 0
156 1 4 0.0 -1.2165390253 -1.1425894499 -1.2709730864 1 0 0
157 1 2 0.0 1.4106304646 -1.3910017014 1.3525351286 0 0 -1
158 1 6 0.0 1.2526979446 1.2660220861 1.0045439005 0 -1 -1
159 1 2 0.0 1.2981846333 0.9375749826 0.6381299496 0 -1 -1
160 1 5 0.0 1.3880019188 0.6580316424 0.4048492014 0 -1 -1

Bonds

1 1 1 2
2 12 1 125
3 2 2 3
4 7 3 121
5 1 4 5
6 11 4 146
7 12 4 100
8 2 5 6
9 1 7 8
10 12 7 140
11 12 7 120
12 2 8 9
13 8 9 90
14 1 10 11
15 12 10 95
16 2 11 12
17 1 13 14
18 12 13 150
19 2 14 15
20 8 15 160
21 7 15 71
22 1 16 17
23 12 16 85
24 11 16 156
25 2 17 18
26 8 18 145
27 7 18 91
28 1 19 20
29 2 20 21
30 8 21 75
31 7 21 131
32 1 22 23
33 2 23 24
34 8 24 70
35 8 24 115
36 1 25 26
37 11 25 106
38 2 26 27
39 7 27 141
40 7 27 116
41 1 28 29
42 11 28 111
43 11 28 86
44 2 29 30
45 1 31 32
46 2 32 33
47 1 34 35
48 11 34 76
49 2 35 36
50 1 37 38
51 2 38 39
52 8 39 110
53 1 40 41
54 11 40 96
55 11 40 81
56 2 41 42
57 8 42 105
58 7 42 126
59 1 43 44
60 11 43 101
61 2 44 45
62 1 46 47
63 12 46 80
64 2 47 48
65 8 48 130
66 8 48 155
67 1 49 50
68 2 50 51
69 1 52 53
70 2 53 54
71 1 55 56
72 11 55 66
73 11 55 136
74 2 56 57
75 8 57 65
76 8 57 135
77 1 58 59
78 11 58 61
79 11 58 151
80 2 59 60
81 5 61 62
82 4 62 63
83 4 63 64
84 3 64 65
85 5 66 67
86 4 67 68
87 4 68 69
88 3 69 70
89 5 71 72
90 4 72 73
91 4 73 74
92 3 74 75
93 5 76 77
94 4 77 78
95 4 78 79
96 3 79 80
97 5 81 82
98 4 82 83
99 4 83 84
100 3 84 85
101 5 86 87
102 4 87 88
103 4 88 89
104 3 89 90
105 5 91 92
106 4 92 93
107 4 93 94
108 3 94 95
109 5 96 97
110 4 97 98
111 4 98 99
112 3 99 100
113 5 101 102
114 4 102 103
115 4 103 104
116 3 104 105
117 5 106 107
118 4 107 108
119 4 108 109
120 3 109 110
121 5 111 112
122 4 112 113
123 4 113 114
124 3 114 115
125 5 116 117
126 4 117 118
127 4 118 119
128 3 119 120
129 5 121 122
130 4 122 123
131 4 123 124
132 3 124 125
133 5 126 127
134 4 127 128
135 4 128 129
136 3 129 130
137 5 131 132
138 4 132 133
139 4 133 134
140 3 134 135
141 5 136 137
142 4 137 138
143 4 138 139
144 3 139 140
145 5 141 142
146 4 142 143
147 4 143 144
148 3 144 145
149 5 146 147
150 4 147 148
151 4 148 149
152 3 149 150
153 5 151 152
154 4 152 153
155 4 153 154
156 3 154 155
157 5 156 157
158 4 157 158
159 4 158 159
160 3 159 160
