# LAMMPS data file written by Ovito 3.0.0-dev349
160 atoms
160 bonds
6 atom types
12 bond types
-1.4575613735 1.4575613735 xlo xhi
-1.4575613735 1.4575613735 ylo yhi
-1.4575613735 1.4575613735 zlo zhi

Atoms # full

1 1 1 0.0 1.1979444027 -0.1673641503 0.5691465139 0 0 0
2 1 2 0.0 -1.4125235081 -0.4180383086 0.1703526229 1 0 0
3 1 3 0.0 -0.866915226 -0.4754322469 -0.0119406953 1 0 0
4 1 1 0.0 -0.9458410144 0.8599754572 -1.2133004665 1 0 1
5 1 2 0.0 -1.3936829567 1.0664588213 -1.3822926283 1 0 1
6 1 3 0.0 1.1555066109 1.0167258978 1.3342357874 0 0 0
7 1 1 0.0 -0.3376947343 0.2512603104 0.3678105175 1 -1 0
8 1 2 0.0 -0.5394256115 0.0234350897 0.7309898138 1 -1 0
9 1 3 0.0 -0.5697461963 -0.0300269946 1.1680583954 1 -1 0
10 1 1 0.0 1.4331352711 1.300806284 -0.2754509151 -1 -1 0
11 1 2 0.0 1.3017780781 -1.3725063801 -0.7524721622 -1 0 0
12 1 3 0.0 1.0877724886 -1.3376829624 -1.1553487778 -1 0 0
13 1 1 0.0 -1.2990703583 -0.5145051479 0.7171009183 0 0 0
14 1 2 0.0 -1.1852508783 -0.0406100899 0.6381622553 0 0 0
15 1 3 0.0 -1.1627643108 0.3106769323 0.3048292398 0 0 0
16 1 1 0.0 -0.7279106379 -0.9395414591 -0.9867049456 -1 0 1
17 1 2 0.0 -0.4830074906 -0.5437611341 -1.1729698181 -1 0 1
18 1 3 0.0 -0.2974739373 -0.125223875 -1.052781105 -1 0 1
19 1 1 0.0 0.8585988283 -1.1804881096 -0.5985744596 -1 0 1
20 1 2 0.0 0.868942976 -0.962057054 -0.9243345857 -1 0 1
21 1 3 0.0 0.6670396924 -0.7808418274 -1.2634825706 -1 0 1
22 1 1 0.0 0.9888234735 0.4011198878 -0.9036487937 0 0 1
23 1 2 0.0 1.1512480974 0.5532482862 -1.2679134607 0 0 1
24 1 3 0.0 1.3199198246 0.5277360082 1.2927209139 0 0 0
25 1 1 0.0 1.0631817579 -0.0161574706 0.01626621 0 0 1
26 1 2 0.0 0.9775019288 -0.5042448044 0.177776888 0 0 1
27 1 3 0.0 1.0847499371 -0.9049888253 0.2059712112 0 0 1
28 1 1 0.0 0.5769848824 -0.9595426917 -0.0118203424 0 0 0
29 1 2 0.0 0.5691106915 -0.7688189745 0.4278630316 0 0 0
30 1 3 0.0 0.3451804519 -0.6157048345 0.7672485113 0 0 0
31 1 1 0.0 -0.4101718664 -0.6563282609 1.2170171738 0 1 0
32 1 2 0.0 -0.1352886707 -0.3580356538 1.2180649042 0 1 0
33 1 3 0.0 0.1399256885 -0.0580947027 1.4268561602 0 1 0
34 1 1 0.0 0.1800023615 0.3200617731 1.0047101974 0 -1 -1
35 1 2 0.0 0.6190214157 0.1879072785 0.9925359488 0 -1 -1
36 1 3 0.0 0.9995121956 -0.0019932338 1.2003821135 0 -1 -1
37 1 1 0.0 0.6899992824 1.0002149343 0.8175564408 0 0 0
38 1 2 0.0 0.2899382114 0.9701775908 0.9344430566 0 0 0
39 1 3 0.0 -0.1257725805 0.9618609548 0.8512833714 0 0 0
40 1 1 0.0 0.2758609653 -1.2311571836 0.481292069 0 0 0
41 1 2 0.0 0.0946732983 1.3523141146 0.4482289553 0 -1 0
42 1 3 0.0 0.0951080397 0.9682713151 0.3014820516 0 -1 0
43 1 1 0.0 0.2077947259 -1.0569047928 -0.7413327098 0 0 0
44 1 2 0.0 -0.2585966885 -1.2130247355 -0.7158179879 0 0 0
45 1 3 0.0 -0.4929155409 1.3982909918 -0.6320066452 0 -1 0
46 1 1 0.0 -0.2542158961 -1.0941114426 0.6230614781 1 0 0
47 1 2 0.0 -0.7324943542 -1.0386744738 0.8533840179 1 0 0
48 1 3 0.0 -0.8771787286 -0.923936367 1.1863617897 1 0 0
49 1 1 0.0 -0.5219461322 -0.6585659385 0.4155986309 0 1 0
50 1 2 0.0 -0.3769028187 -0.8263097405 -0.0223947782 0 1 0
51 1 3 0.0 -0.1044406667 -0.8666850328 -0.3065402508 0 1 0
52 1 1 0.0 -1.3480545282 0.8157093525 0.8432973027 0 1 0
53 1 2 0.0 -1.1858949661 1.1611874104 1.0366446972 0 1 0
54 1 3 0.0 -0.8938046098 1.4061437845 1.1725702286 0 1 0
55 1 1 0.0 1.1269750595 -0.4989853203 -1.0764988661 -1 0 1
56 1 2 0.0 1.0938380957 -0.6151334047 1.4204162359 -1 0 0
57 1 3 0.0 1.0710654259 -0.9191508889 1.1947236061 -1 0 0
58 1 1 0.0 -1.4444822073 0.8410947919 -0.8462871313 0 0 0
59 1 2 0.0 -1.1731483936 1.260158062 -0.9468098879 0 0 0
60 1 3 0.0 -0.7960689068 1.4432268143 -1.0210149288 0 0 0
61 1 4 0.0 -1.3113697767 0.8013831973 -0.3167060316 1 0 0
62 1 2 0.0 -1.2222596407 0.9264850616 0.1209253967 1 0 0
63 1 6 0.0 -1.2222555876 1.1886129379 0.4188041687 1 0 0
64 1 2 0.0 -1.2488650084 -1.3795412779 0.6700942516 1 1 0
65 1 5 0.0 -1.4223233461 -1.1168010235 0.9334233403 1 1 0
66 1 4 0.0 0.9252289534 -0.1726289541 -0.7459079623 -1 0 0
67 1 2 0.0 0.7705454826 0.1509973407 -0.4061378241 -1 0 0
68 1 6 0.0 0.7491217852 0.3713433743 0.0130370026 -1 0 0
69 1 2 0.0 0.8151553273 0.4403648973 0.4613206983 -1 0 0
70 1 5 0.0 1.0494072437 0.4984780252 0.9053455591 -1 0 0
71 1 4 0.0 -0.8951457739 0.7137643099 0.5241794586 0 -1 0
72 1 2 0.0 -0.6905288696 1.0796215534 0.7774996758 0 -1 0
73 1 6 0.0 -0.3883347213 -1.4367384911 1.0016144514 0 0 0
74 1 2 0.0 -0.0753811151 -1.1902422905 1.1872341633 0 0 0
75 1 5 0.0 0.2879248261 -0.994884789 1.3755273819 0 0 0
76 1 4 0.0 0.0903280973 0.6710313559 1.4225473404 0 0 -1
77 1 2 0.0 0.1097561941 0.9558808208 -1.1291366816 0 0 0
78 1 6 0.0 -0.0096012028 1.2233270407 -0.6683047414 0 0 0
79 1 2 0.0 -0.0907167345 -1.4381364584 -0.2567555904 0 1 0
80 1 5 0.0 -0.1775165498 -1.2519997358 0.1207335219 0 1 0
81 1 4 0.0 0.7935532331 -1.3333246708 0.3680375516 -1 1 0
82 1 2 0.0 1.3066703081 -1.3942004442 0.2413657904 -1 1 0
83 1 6 0.0 -1.1774064302 -1.3788779974 0.0201737806 0 1 0
84 1 2 0.0 -0.8653591275 -1.2025357485 -0.1878991276 0 1 0
85 1 5 0.0 -0.7190244794 -1.0321186781 -0.4696720243 0 1 0
86 1 4 0.0 0.4585872293 -1.4521156549 -0.0361394249 0 1 0
87 1 2 0.0 0.3138381243 1.0910845995 -0.227065742 0 0 0
88 1 6 0.0 0.1260424554 0.7304165363 -0.6385419369 0 0 0
89 1 2 0.0 -0.0731739104 0.5028902292 -0.9980178475 0 0 0
90 1 5 0.0 -0.2773989439 0.2847861052 -1.3914778233 0 0 0
91 1 4 0.0 -0.2601036727 0.0458204895 -0.6039652824 0 0 0
92 1 2 0.0 -0.0230677966 0.3319217861 -0.2854441404 0 0 0
93 1 6 0.0 0.3028971255 0.628855288 -0.0039562387 0 0 0
94 1 2 0.0 0.6811505556 0.8717865348 0.1764712632 0 0 0
95 1 5 0.0 1.1047098637 1.0684864521 0.0294804424 0 0 0
96 1 4 0.0 0.1099992469 -0.7596798539 0.2321980894 0 0 0
97 1 2 0.0 -0.1529256701 -0.3353750408 0.0900201499 0 0 0
98 1 6 0.0 -0.4662777781 -0.0187450387 -0.113206163 0 0 0
99 1 2 0.0 -0.79721421 0.349424839 -0.4092640579 0 0 0
100 1 5 0.0 -0.9137796164 0.6694303751 -0.7267763615 0 0 0
101 1 4 0.0 0.3723916113 -0.6911519766 -0.4463143647 0 0 0
102 1 2 0.0 0.4786795974 -0.4463077784 -0.0867983922 0 0 0
103 1 6 0.0 0.4605754614 -0.1955711246 0.2894013226 0 0 0
104 1 2 0.0 0.3816000521 0.118099913 0.5009019971 0 0 0
105 1 5 0.0 0.210989058 0.5376394987 0.5336380005 0 0 0
106 1 4 0.0 1.3165019751 0.1181768849 -0.411960721 -1 0 0
107 1 2 0.0 -1.4058231115 0.2301899493 -0.7679724693 0 0 0
108 1 6 0.0 -1.1738413572 0.3910661638 -1.120613575 0 0 0
109 1 2 0.0 -0.851575613 0.5126274228 1.3436994553 0 0 -1
110 1 5 0.0 -0.5399150252 0.6818416119 1.0150387287 0 0 -1
111 1 4 0.0 1.005625844 -0.7865433097 -0.2694840133 -1 0 0
112 1 2 0.0 1.3229175806 -0.5480138659 -0.4216534197 -1 0 0
113 1 6 0.0 -1.3612185717 -0.3583367467 -0.7169621587 0 0 0
114 1 2 0.0 -1.3138221502 -0.2064815313 -1.1763707399 0 0 0
115 1 5 0.0 -1.4342691898 0.053393539 1.4131411314 0 0 -1
116 1 4 0.0 -1.3172086477 -0.9327046275 0.3708383739 -1 1 0
117 1 2 0.0 -0.893355906 -1.0702154636 0.4123614132 -1 1 0
118 1 6 0.0 -0.6357341409 -1.372243762 0.3304665685 -1 1 0
119 1 2 0.0 -0.4309354722 1.2138373852 0.3326951563 -1 0 0
120 1 5 0.0 -0.3524776697 0.7548564672 0.4270079732 -1 0 0
121 1 4 0.0 -0.5445690751 -0.4962460399 -0.5071871281 1 0 0
122 1 2 0.0 -0.1258570254 -0.5319499373 -0.7578305602 1 0 0
123 1 6 0.0 0.1980059147 -0.5439556837 -1.2125720978 1 0 0
124 1 2 0.0 0.4945694208 -0.5131061673 1.2508006096 1 0 -1
125 1 5 0.0 0.8069262505 -0.3796341121 0.8941962123 1 0 -1
126 1 4 0.0 -0.1669999808 0.8701736927 -0.1359906793 0 0 0
127 1 2 0.0 -0.3503987789 0.69548136 -0.5801250339 0 0 0
128 1 6 0.0 -0.557618618 0.4005848467 -0.9442775249 0 0 0
129 1 2 0.0 -0.7864139676 0.0433905609 -1.2449342012 0 0 0
130 1 5 0.0 -0.8774405122 -0.3770794272 1.4017174244 0 0 -1
131 1 4 0.0 0.7131993175 -0.2136900574 -1.3060468435 0 0 0
132 1 2 0.0 0.6631545424 0.3401739001 -1.3462783098 0 0 0
133 1 6 0.0 0.5993355513 0.8013014197 -1.3872349262 0 0 0
134 1 2 0.0 0.5973514915 1.2298491001 1.4395881891 0 0 -1
135 1 5 0.0 0.7839328051 -1.3224433661 1.3564562798 0 1 -1
136 1 4 0.0 1.4181610346 -0.828407526 -0.8277592063 0 1 0
137 1 2 0.0 -1.1802768707 -1.1720188856 -0.6861147881 1 1 0
138 1 6 0.0 -0.9833679795 1.3493603468 -0.4928016365 1 0 0
139 1 2 0.0 -0.7701175809 0.9675890207 -0.3002245128 1 0 0
140 1 5 0.0 -0.5627013445 0.5835968852 -0.0414735116 1 0 0
141 1 4 0.0 0.9479966164 -1.3189381361 -0.1295109838 -1 0 0
142 1 2 0.0 0.8241941929 1.1964792013 -0.4136972427 -1 -1 0
143 1 6 0.0 0.6267510056 0.7747938633 -0.6310500503 -1 -1 0
144 1 2 0.0 0.4663594365 0.3170784116 -0.8001912832 -1 -1 0
145 1 5 0.0 0.1774949729 -0.0218988936 -0.987601459 -1 -1 0
146 1 4 0.0 -0.4286662936 1.0418541431 -1.4177262783 0 -1 0
147 1 2 0.0 -0.0108611891 1.2186098099 1.2948946953 0 -1 -1
148 1 6 0.0 0.3480640352 -1.4257231951 1.0699887276 0 0 -1
149 1 2 0.0 0.7023758292 -1.1402212381 0.8689467907 0 0 -1
150 1 5 0.0 1.1484755278 -0.7347536087 0.7122023106 0 0 -1
151 1 4 0.0 0.9898177385 1.0283495188 -0.9102773666 0 -1 1
152 1 2 0.0 0.5821504593 1.2083319426 -0.9875853062 0 -1 1
153 1 6 0.0 0.1421620697 -1.447240591 -1.1232414246 0 0 1
154 1 2 0.0 -0.2318017781 -1.2885998487 -1.2538303137 0 0 1
155 1 5 0.0 -0.537234962 -1.1628390551 -1.4147276878 0 0 1
156 1 4 0.0 -1.1707296371 -1.1151683331 -1.2449169159 1 0 0
157 1 2 0.0 1.3642371893 -1.3121221066 1.3471791744 0 0 -1
158 1 6 0.0 1.133232832 1.3911089897 0.9374790192 0 -1 -1
159 1 2 0.0 1.1423428059 1.0550305843 0.5691996813 0 -1 -1
160 1 5 0.0 1.3288753033 0.6491088867 0.3685425818 0 -1 -1

Bonds

1 1 1 2
2 12 1 125
3 2 2 3
4 7 3 121
5 1 4 5
6 11 4 146
7 12 4 100
8 2 5 6
9 1 7 8
10 12 7 140
11 12 7 120
12 2 8 9
13 8 9 90
14 1 10 11
15 12 10 95
16 2 11 12
17 1 13 14
18 12 13 150
19 2 14 15
20 8 15 160
21 7 15 71
22 1 16 17
23 12 16 85
24 11 16 156
25 2 17 18
26 8 18 145
27 7 18 91
28 1 19 20
29 2 20 21
30 8 21 75
31 7 21 131
32 1 22 23
33 2 23 24
34 8 24 70
35 8 24 115
36 1 25 26
37 11 25 106
38 2 26 27
39 7 27 141
40 7 27 116
41 1 28 29
42 11 28 111
43 11 28 86
44 2 29 30
45 1 31 32
46 2 32 33
47 1 34 35
48 11 34 76
49 2 35 36
50 1 37 38
51 2 38 39
52 8 39 110
53 1 40 41
54 11 40 96
55 11 40 81
56 2 41 42
57 8 42 105
58 7 42 126
59 1 43 44
60 11 43 101
61 2 44 45
62 1 46 47
63 12 46 80
64 2 47 48
65 8 48 130
66 8 48 155
67 1 49 50
68 2 50 51
69 1 52 53
70 2 53 54
71 1 55 56
72 11 55 66
73 11 55 136
74 2 56 57
75 8 57 65
76 8 57 135
77 1 58 59
78 11 58 61
79 11 58 151
80 2 59 60
81 5 61 62
82 4 62 63
83 4 63 64
84 3 64 65
85 5 66 67
86 4 67 68
87 4 68 69
88 3 69 70
89 5 71 72
90 4 72 73
91 4 73 74
92 3 74 75
93 5 76 77
94 4 77 78
95 4 78 79
96 3 79 80
97 5 81 82
98 4 82 83
99 4 83 84
100 3 84 85
101 5 86 87
102 4 87 88
103 4 88 89
104 3 89 90
105 5 91 92
106 4 92 93
107 4 93 94
108 3 94 95
109 5 96 97
110 4 97 98
111 4 98 99
112 3 99 100
113 5 101 102
114 4 102 103
115 4 103 104
116 3 104 105
117 5 106 107
118 4 107 108
119 4 108 109
120 3 109 110
121 5 111 112
122 4 112 113
123 4 113 114
124 3 114 115
125 5 116 117
126 4 117 118
127 4 118 119
128 3 119 120
129 5 121 122
130 4 122 123
131 4 123 124
132 3 124 125
133 5 126 127
134 4 127 128
135 4 128 129
136 3 129 130
137 5 131 132
138 4 132 133
139 4 133 134
140 3 134 135
141 5 136 137
142 4 137 138
143 4 138 139
144 3 139 140
145 5 141 142
146 4 142 143
147 4 143 144
148 3 144 145
149 5 146 147
150 4 147 148
151 4 148 149
152 3 149 150
153 5 151 152
154 4 152 153
155 4 153 154
156 3 154 155
157 5 156 157
158 4 157 158
159 4 158 159
160 3 159 160
