# LAMMPS data file written by Ovito 3.0.0-dev349
160 atoms
160 bonds
6 atom types
12 bond types
-1.437678814 1.437678814 xlo xhi
-1.437678814 1.437678814 ylo yhi
-1.437678814 1.437678814 zlo zhi

Atoms # full

1 1 1 0.0 1.131831646 -0.1123146862 0.5119813681 0 0 0
2 1 2 0.0 -1.3969761133 -0.4203996062 0.2636377513 1 0 0
3 1 3 0.0 -1.0766921043 -0.5805663466 -0.119781971 1 0 0
4 1 1 0.0 -0.8752450943 0.882445097 -1.2601560354 1 0 1
5 1 2 0.0 -1.3005578518 0.951500237 -1.376899004 1 0 1
6 1 3 0.0 1.1574991941 1.1753948927 -1.3421640396 0 0 1
7 1 1 0.0 -0.2221091241 0.1814590991 0.2622238696 1 -1 0
8 1 2 0.0 -0.4341402948 0.063940309 0.6586372256 1 -1 0
9 1 3 0.0 -0.5761972666 0.133958444 1.0033293962 1 -1 0
10 1 1 0.0 1.28109622 1.2324368954 -0.1495594829 -1 -1 0
11 1 2 0.0 1.1008501053 -1.3708866835 -0.5667048693 -1 0 0
12 1 3 0.0 1.0656177998 -1.3356864452 -0.9839203358 -1 0 0
13 1 1 0.0 -1.1744412184 -0.2981950641 0.7741237283 0 0 0
14 1 2 0.0 -1.0879007578 -0.0233395267 0.4687451422 0 0 0
15 1 3 0.0 -1.1306087971 0.4456541836 0.3634496927 0 0 0
16 1 1 0.0 -0.7774851322 -0.8141915202 -0.9758090973 -1 0 1
17 1 2 0.0 -0.4297843575 -0.4977213442 -1.1801060438 -1 0 1
18 1 3 0.0 -0.1906535029 -0.0918105617 -1.0904198885 -1 0 1
19 1 1 0.0 0.5530986786 -1.1433993578 -0.5243390203 -1 0 1
20 1 2 0.0 0.7200189233 -0.9113357663 -0.8211621046 -1 0 1
21 1 3 0.0 0.6971111894 -0.7242541313 -1.2086774111 -1 0 1
22 1 1 0.0 1.069316864 0.5234055519 -0.86137712 0 0 1
23 1 2 0.0 1.2190892696 0.5399695635 -1.2076461315 0 0 1
24 1 3 0.0 1.3142409325 0.3183363676 1.3439116478 0 0 0
25 1 1 0.0 1.1662409306 -0.0632154122 0.0022541885 0 0 1
26 1 2 0.0 0.9599682093 -0.4376055002 0.0693935454 0 0 1
27 1 3 0.0 1.0331423283 -0.8775623441 0.2861323655 0 0 1
28 1 1 0.0 0.39309147 -0.9290160537 0.0081547126 0 0 0
29 1 2 0.0 0.4595853686 -0.8072095513 0.3930637538 0 0 0
30 1 3 0.0 0.1879267991 -0.623894453 0.81005615 0 0 0
31 1 1 0.0 -0.4050495923 -0.4103820324 0.8790635467 0 1 0
32 1 2 0.0 -0.1247447208 -0.2686470449 1.294860363 0 1 0
33 1 3 0.0 0.2507171929 0.0826991126 -1.4084490538 0 1 1
34 1 1 0.0 0.4803119302 0.390824914 1.056753993 0 -1 -1
35 1 2 0.0 0.7990822196 0.0444913916 1.1836429834 0 -1 -1
36 1 3 0.0 1.1832299232 -0.1887506992 1.1206072569 0 -1 -1
37 1 1 0.0 0.9219108224 0.7992789149 1.2219824791 0 0 0
38 1 2 0.0 0.5757441521 1.0220267773 0.9479795098 0 0 0
39 1 3 0.0 0.0414727032 1.0302217007 0.7697832584 0 0 0
40 1 1 0.0 0.2069451064 -1.2035640478 0.5954968333 0 0 0
41 1 2 0.0 0.1319319904 1.4283648729 0.3197342455 0 -1 0
42 1 3 0.0 0.1540655047 1.0293216705 0.1291768998 0 -1 0
43 1 1 0.0 0.1176713109 -0.9561960101 -0.830337882 0 0 0
44 1 2 0.0 -0.2695980072 -1.0831987858 -0.8318037391 0 0 0
45 1 3 0.0 -0.5594969392 -1.3145333529 -0.9612380266 0 0 0
46 1 1 0.0 -0.335713774 -1.1287459135 0.4259595573 1 0 0
47 1 2 0.0 -0.5872768164 -0.9199113846 0.6836083531 1 0 0
48 1 3 0.0 -0.80006814 -0.8397732377 1.132268548 1 0 0
49 1 1 0.0 -0.796649754 -0.4411379993 0.3421522379 0 1 0
50 1 2 0.0 -0.576405108 -0.7734158039 0.0718932599 0 1 0
51 1 3 0.0 -0.2720463276 -0.8833914995 -0.2573390901 0 1 0
52 1 1 0.0 -1.1020731926 0.1515112668 1.0162525177 0 1 0
53 1 2 0.0 -1.1855624914 0.6299542189 0.9078360796 0 1 0
54 1 3 0.0 -1.1024755239 1.1173541546 1.0300263166 0 1 0
55 1 1 0.0 1.172170639 -0.6326060295 -0.940936625 -1 0 1
56 1 2 0.0 1.1701589823 -0.5908439755 -1.315988183 -1 0 1
57 1 3 0.0 1.0890552998 -0.7666962743 1.2429902554 -1 0 0
58 1 1 0.0 -1.3427557945 0.8788824677 -0.8057488203 0 0 0
59 1 2 0.0 -1.057097435 1.2826917171 -1.0432108641 0 0 0
60 1 3 0.0 -0.9066025615 -1.3853197098 1.3876769543 0 1 -1
61 1 4 0.0 -1.2493041754 0.7836129069 -0.3167886138 1 0 0
62 1 2 0.0 -1.1310391426 0.9630942941 0.1407592893 1 0 0
63 1 6 0.0 -1.2320666313 1.1498566866 0.4851839542 1 0 0
64 1 2 0.0 -1.3581973314 -1.4049619436 0.7206531763 1 1 0
65 1 5 0.0 1.3984080553 -1.0233334303 0.9672271013 0 1 0
66 1 4 0.0 0.8727707863 -0.3209870458 -0.6657060981 -1 0 0
67 1 2 0.0 0.7170775533 -0.0708677545 -0.4683775604 -1 0 0
68 1 6 0.0 0.7387184501 0.2163658291 -0.0249508228 -1 0 0
69 1 2 0.0 0.8740347028 0.3843306899 0.4101750851 -1 0 0
70 1 5 0.0 1.0735349655 0.4008915126 0.8733181953 -1 0 0
71 1 4 0.0 -0.7648038864 0.7746392488 0.5551006794 0 -1 0
72 1 2 0.0 -0.6333827972 1.1487169266 0.8035581112 0 -1 0
73 1 6 0.0 -0.4180464447 -1.3929015398 0.960360229 0 0 0
74 1 2 0.0 -0.0948445797 -1.0501929522 1.119679451 0 0 0
75 1 5 0.0 0.2645837367 -0.8694700599 1.3978456259 0 0 0
76 1 4 0.0 0.254414171 0.7234723568 1.3289836645 0 0 -1
77 1 2 0.0 0.0696245804 1.0116816759 -1.2216228247 0 0 0
78 1 6 0.0 -0.1790904552 1.2003651857 -0.8489089012 0 0 0
79 1 2 0.0 -0.3719444573 1.3785095215 -0.4541509151 0 0 0
80 1 5 0.0 -0.4207663834 -1.3560268879 -0.0153411143 0 1 0
81 1 4 0.0 0.7571851015 -1.3624546528 0.5540855527 -1 1 0
82 1 2 0.0 1.1621596813 -1.4313937426 0.3726228774 -1 1 0
83 1 6 0.0 -1.3391089439 -1.2673975229 0.1018967479 0 1 0
84 1 2 0.0 -1.0361888409 -1.1177586317 -0.1042068154 0 1 0
85 1 5 0.0 -0.8313391209 -0.9728878736 -0.4328275919 0 1 0
86 1 4 0.0 0.2593874931 -1.374681592 -0.1969356239 0 1 0
87 1 2 0.0 0.2134122401 1.1977877617 -0.4414029419 0 0 0
88 1 6 0.0 0.1214319542 0.7744330764 -0.7636240721 0 0 0
89 1 2 0.0 -0.0496537015 0.490278393 -1.127456069 0 0 0
90 1 5 0.0 -0.2708943784 0.3306701183 1.4121874571 0 0 -1
91 1 4 0.0 -0.2348112017 0.0891539305 -0.6146230698 0 0 0
92 1 2 0.0 -0.060615886 0.2752586305 -0.2483777702 0 0 0
93 1 6 0.0 0.205397889 0.4838201106 -0.0390728526 0 0 0
94 1 2 0.0 0.6090477705 0.7324774265 0.0530821942 0 0 0
95 1 5 0.0 0.9381831884 0.9218478203 0.0349096544 0 0 0
96 1 4 0.0 -0.0862657428 -0.7220852375 0.3920129836 0 0 0
97 1 2 0.0 -0.2872025073 -0.3196643591 0.1531440914 0 0 0
98 1 6 0.0 -0.6223669648 0.0038784572 -0.0973176286 0 0 0
99 1 2 0.0 -0.8584561944 0.2913482487 -0.4222283959 0 0 0
100 1 5 0.0 -0.8682471514 0.6357783079 -0.8022582531 0 0 0
101 1 4 0.0 0.3547800183 -0.6509367228 -0.4776259661 0 0 0
102 1 2 0.0 0.4959971905 -0.4022591114 -0.0690996647 0 0 0
103 1 6 0.0 0.5399508476 -0.1495187283 0.2936982512 0 0 0
104 1 2 0.0 0.3608081043 0.1664944291 0.5309885144 0 0 0
105 1 5 0.0 0.2726520002 0.6831723452 0.4382734895 0 0 0
106 1 4 0.0 1.3738330603 0.0925816223 -0.5381516218 -1 0 0
107 1 2 0.0 -1.2868026495 0.2434954941 -0.8933212757 0 0 0
108 1 6 0.0 -1.0412737131 0.3882107139 -1.2771062851 0 0 0
109 1 2 0.0 -0.6970261335 0.5580423474 1.2211532593 0 0 -1
110 1 5 0.0 -0.3154265285 0.7598105669 0.984634161 0 0 -1
111 1 4 0.0 0.8269413114 -0.7957702875 -0.2523719668 -1 0 0
112 1 2 0.0 1.2939319611 -0.7704781294 -0.3958441615 -1 0 0
113 1 6 0.0 -1.2796999216 -0.584805727 -0.6456840634 0 0 0
114 1 2 0.0 -1.2049349546 -0.4239829779 -1.0350966454 0 0 0
115 1 5 0.0 -1.3085774183 -0.1619443297 -1.3507909775 0 0 0
116 1 4 0.0 -1.3589061499 -0.9304836392 0.4673074186 -1 1 0
117 1 2 0.0 -1.0216344595 -1.1002818346 0.4651570618 -1 1 0
118 1 6 0.0 -0.7110017538 -1.4024171829 0.4365290701 -1 1 0
119 1 2 0.0 -0.4263893068 1.1177964211 0.3093384802 -1 0 0
120 1 5 0.0 -0.2452232987 0.6666882634 0.297089994 -1 0 0
121 1 4 0.0 -0.5743861198 -0.4668802917 -0.4163982868 1 0 0
122 1 2 0.0 -0.1645861864 -0.4847995639 -0.7290897369 1 0 0
123 1 6 0.0 0.185419172 -0.4750869274 -1.1989337206 1 0 0
124 1 2 0.0 0.4323239028 -0.3751145303 1.2112212181 1 0 -1
125 1 5 0.0 0.7341536283 -0.3163703382 0.8080765605 1 0 -1
126 1 4 0.0 -0.1079200879 0.8254488707 -0.2831305861 0 0 0
127 1 2 0.0 -0.3314403296 0.6075719595 -0.6098744273 0 0 0
128 1 6 0.0 -0.5499120951 0.3063805997 -1.0313850641 0 0 0
129 1 2 0.0 -0.7107836604 0.0318378769 -1.4063005447 0 0 0
130 1 5 0.0 -0.8389799595 -0.3814215958 1.310811162 0 0 -1
131 1 4 0.0 0.6882301569 -0.2242519259 -1.1640150547 0 0 0
132 1 2 0.0 0.7313246131 0.2444070429 -1.1549839973 0 0 0
133 1 6 0.0 0.658233881 0.7505066395 -1.2143104076 0 0 0
134 1 2 0.0 0.6497184038 1.2206711769 -1.3402769566 0 0 0
135 1 5 0.0 0.8066220284 -1.1878043413 1.3955146074 0 1 -1
136 1 4 0.0 -1.4096657038 -1.0632570982 -0.7595267296 1 1 0
137 1 2 0.0 -1.1643519402 -1.3506319523 -0.5515349507 1 1 0
138 1 6 0.0 -0.9038707614 1.1514680386 -0.3920093477 1 0 0
139 1 2 0.0 -0.6941946149 0.8164417744 -0.2209849358 1 0 0
140 1 5 0.0 -0.504860878 0.4785672724 -0.0854085088 1 0 0
141 1 4 0.0 0.8462792635 -1.2850728035 -0.0203858446 -1 0 0
142 1 2 0.0 0.7251918912 1.2736983299 -0.3251199722 -1 -1 0
143 1 6 0.0 0.6722925305 0.8071264625 -0.5061553121 -1 -1 0
144 1 2 0.0 0.5187764168 0.4165264964 -0.6656077504 -1 -1 0
145 1 5 0.0 0.2366840541 0.1285153925 -0.9046711922 -1 -1 0
146 1 4 0.0 -0.393155843 1.1408435106 1.3532940149 0 -1 -1
147 1 2 0.0 0.0303982329 1.3092415333 1.1639192104 0 -1 -1
148 1 6 0.0 0.4175571203 -1.2726404667 1.0700976849 0 0 -1
149 1 2 0.0 0.8360435963 -0.9513688087 0.8366088271 0 0 -1
150 1 5 0.0 1.228405118 -0.5929251909 0.7609374523 0 0 -1
151 1 4 0.0 1.0261406898 1.0282417536 -0.7713035941 0 -1 1
152 1 2 0.0 0.5431127548 1.2586005926 -0.8654670715 0 -1 1
153 1 6 0.0 0.2332180589 -1.3978521824 -1.1029891968 0 0 1
154 1 2 0.0 -0.1303114593 -1.2178201675 -1.2802555561 0 0 1
155 1 5 0.0 -0.5057184696 -1.0420017242 -1.4027256966 0 0 1
156 1 4 0.0 -1.1678811312 -1.021104455 -1.2518458366 1 0 0
157 1 2 0.0 1.3418474197 -1.2580342293 1.4169631004 0 0 -1
158 1 6 0.0 1.1151630878 1.3129390478 1.0640896559 0 -1 -1
159 1 2 0.0 1.1308249235 0.9653686881 0.7283976078 0 -1 -1
160 1 5 0.0 1.3574723005 0.6899780035 0.4915443957 0 -1 -1

Bonds

1 1 1 2
2 12 1 125
3 2 2 3
4 7 3 121
5 1 4 5
6 11 4 146
7 12 4 100
8 2 5 6
9 1 7 8
10 12 7 140
11 12 7 120
12 2 8 9
13 8 9 90
14 1 10 11
15 12 10 95
16 2 11 12
17 1 13 14
18 12 13 150
19 2 14 15
20 8 15 160
21 7 15 71
22 1 16 17
23 12 16 85
24 11 16 156
25 2 17 18
26 8 18 145
27 7 18 91
28 1 19 20
29 2 20 21
30 8 21 75
31 7 21 131
32 1 22 23
33 2 23 24
34 8 24 70
35 8 24 115
36 1 25 26
37 11 25 106
38 2 26 27
39 7 27 141
40 7 27 116
41 1 28 29
42 11 28 111
43 11 28 86
44 2 29 30
45 1 31 32
46 2 32 33
47 1 34 35
48 11 34 76
49 2 35 36
50 1 37 38
51 2 38 39
52 8 39 110
53 1 40 41
54 11 40 96
55 11 40 81
56 2 41 42
57 8 42 105
58 7 42 126
59 1 43 44
60 11 43 101
61 2 44 45
62 1 46 47
63 12 46 80
64 2 47 48
65 8 48 130
66 8 48 155
67 1 49 50
68 2 50 51
69 1 52 53
70 2 53 54
71 1 55 56
72 11 55 66
73 11 55 136
74 2 56 57
75 8 57 65
76 8 57 135
77 1 58 59
78 11 58 61
79 11 58 151
80 2 59 60
81 5 61 62
82 4 62 63
83 4 63 64
84 3 64 65
85 5 66 67
86 4 67 68
87 4 68 69
88 3 69 70
89 5 71 72
90 4 72 73
91 4 73 74
92 3 74 75
93 5 76 77
94 4 77 78
95 4 78 79
96 3 79 80
97 5 81 82
98 4 82 83
99 4 83 84
100 3 84 85
101 5 86 87
102 4 87 88
103 4 88 89
104 3 89 90
105 5 91 92
106 4 92 93
107 4 93 94
108 3 94 95
109 5 96 97
110 4 97 98
111 4 98 99
112 3 99 100
113 5 101 102
114 4 102 103
115 4 103 104
116 3 104 105
117 5 106 107
118 4 107 108
119 4 108 109
120 3 109 110
121 5 111 112
122 4 112 113
123 4 113 114
124 3 114 115
125 5 116 117
126 4 117 118
127 4 118 119
128 3 119 120
129 5 121 122
130 4 122 123
131 4 123 124
132 3 124 125
133 5 126 127
134 4 127 128
135 4 128 129
136 3 129 130
137 5 131 132
138 4 132 133
139 4 133 134
140 3 134 135
141 5 136 137
142 4 137 138
143 4 138 139
144 3 139 140
145 5 141 142
146 4 142 143
147 4 143 144
148 3 144 145
149 5 146 147
150 4 147 148
151 4 148 149
152 3 149 150
153 5 151 152
154 4 152 153
155 4 153 154
156 3 154 155
157 5 156 157
158 4 157 158
159 4 158 159
160 3 159 160
