# LAMMPS data file written by Ovito 3.0.0-dev349
160 atoms
160 bonds
6 atom types
12 bond types
-1.4296246765 1.4296246765 xlo xhi
-1.4296246765 1.4296246765 ylo yhi
-1.4296246765 1.4296246765 zlo zhi

Atoms # full

1 1 1 0.0 1.2268767357 -0.1435316056 0.4342223108 0 0 0
2 1 2 0.0 -1.4003874063 -0.4741106927 0.0176914204 1 0 0
3 1 3 0.0 -1.0630503893 -0.7046615481 -0.1538443416 1 0 0
4 1 1 0.0 -0.8466128111 0.9716382027 -1.1532565355 1 0 1
5 1 2 0.0 -1.1795389652 0.901881218 1.394203186 1 0 0
6 1 3 0.0 -1.2640748024 0.8512415886 0.9124284983 1 0 0
7 1 1 0.0 -0.2570617795 0.2623138726 0.2806518674 1 -1 0
8 1 2 0.0 -0.3386518955 0.0688646957 0.6868827343 1 -1 0
9 1 3 0.0 -0.6082514524 0.0857433453 1.1722205877 1 -1 0
10 1 1 0.0 -1.4259598255 1.3516995907 -0.2435765266 0 -1 0
11 1 2 0.0 1.1389132738 -1.322185874 -0.6035909057 -1 0 0
12 1 3 0.0 1.0271959305 -1.3320446014 -1.0707632303 -1 0 0
13 1 1 0.0 -1.1766291857 -0.4475405514 0.548037231 0 0 0
14 1 2 0.0 -1.0778852701 -0.0378034636 0.282691896 0 0 0
15 1 3 0.0 -1.0608785152 0.3957229853 0.2291837633 0 0 0
16 1 1 0.0 -0.7220078707 -0.8531391025 -0.9617985487 -1 0 1
17 1 2 0.0 -0.4580025673 -0.5155382156 -1.0940828323 -1 0 1
18 1 3 0.0 -0.2021244317 -0.0985934213 -1.0305635929 -1 0 1
19 1 1 0.0 0.5720151663 -1.1640863419 -0.544047296 -1 0 1
20 1 2 0.0 0.6955744624 -0.8229770064 -0.8089379072 -1 0 1
21 1 3 0.0 0.6846609116 -0.6325843334 -1.2789535522 -1 0 1
22 1 1 0.0 1.0378520489 0.5380394459 -0.9238494039 0 0 1
23 1 2 0.0 1.2191722393 0.5624885559 -1.3552685976 0 0 1
24 1 3 0.0 -1.4168922901 0.3945482671 1.1972484589 1 0 0
25 1 1 0.0 1.1035712957 0.110740006 -0.0445983373 0 0 1
26 1 2 0.0 0.907227397 -0.3679910004 0.0329958126 0 0 1
27 1 3 0.0 0.9744443297 -0.8389881849 0.2253693789 0 0 1
28 1 1 0.0 0.4760725796 -0.9660040736 0.0111104753 0 0 0
29 1 2 0.0 0.5137281418 -0.7253836989 0.4152648151 0 0 0
30 1 3 0.0 0.2938544154 -0.656498611 0.8373090625 0 0 0
31 1 1 0.0 -0.2641994357 -0.5148401856 0.9060035944 0 1 0
32 1 2 0.0 -0.021758765 -0.1502395868 1.0629918575 0 1 0
33 1 3 0.0 0.1482317597 0.09648972 -1.4119246006 0 1 1
34 1 1 0.0 0.385559231 0.5647045374 1.0795220137 0 -1 -1
35 1 2 0.0 0.6672352552 0.1721713692 1.1100209951 0 -1 -1
36 1 3 0.0 1.0652329922 -0.0988276675 1.178604126 0 -1 -1
37 1 1 0.0 1.0773915052 0.8163520098 1.0981729031 0 0 0
38 1 2 0.0 0.753167212 1.0002225637 0.8472618461 0 0 0
39 1 3 0.0 0.2935451865 1.1373836994 0.7905650735 0 0 0
40 1 1 0.0 0.2381121963 -1.1966830492 0.4944706261 0 0 0
41 1 2 0.0 0.0786485225 1.3701015711 0.3320679665 0 -1 0
42 1 3 0.0 0.1046089604 1.0788139105 0.2050534636 0 -1 0
43 1 1 0.0 0.2039840668 -0.9330874681 -0.8075725436 0 0 0
44 1 2 0.0 -0.2075701654 -1.1060299873 -0.7782991529 0 0 0
45 1 3 0.0 -0.6306156516 -1.4119670391 -0.8903275728 0 0 0
46 1 1 0.0 -0.2942895591 -1.0102467537 0.6225270033 1 0 0
47 1 2 0.0 -0.7150593996 -0.8772591352 0.8340158463 1 0 0
48 1 3 0.0 -0.8782058954 -0.8426030278 1.1972101927 1 0 0
49 1 1 0.0 -0.6757138371 -0.5824058652 0.3605629206 0 1 0
50 1 2 0.0 -0.5075454712 -0.7986976504 0.0479015335 0 1 0
51 1 3 0.0 -0.1159074306 -0.9468373656 -0.252409488 0 1 0
52 1 1 0.0 -1.2464356422 -0.4863765538 1.0472618341 0 1 0
53 1 2 0.0 -1.1334788799 -0.0640959293 1.023114562 0 1 0
54 1 3 0.0 -1.0654532909 0.3698325455 0.8417754769 0 1 0
55 1 1 0.0 1.1250441074 -0.4471315742 -0.9447684288 -1 0 1
56 1 2 0.0 1.1792570353 -0.4799599946 -1.3268016577 -1 0 1
57 1 3 0.0 1.1050424576 -0.7662677169 1.1845662594 -1 0 0
58 1 1 0.0 1.3912777901 0.8662838936 -0.9373158216 -1 0 0
59 1 2 0.0 -1.2184002399 1.3019039631 -1.1631742716 0 0 0
60 1 3 0.0 -0.9348241091 -1.3770757914 1.3255805969 0 1 -1
61 1 4 0.0 -1.3303272724 0.8304507136 -0.422241658 1 0 0
62 1 2 0.0 -1.114349246 0.9473261833 0.068793565 1 0 0
63 1 6 0.0 -1.0334634781 1.1342732906 0.4577217996 1 0 0
64 1 2 0.0 -1.1574716568 -1.3929784298 0.7569146156 1 1 0
65 1 5 0.0 -1.3787324429 -1.0612210035 0.8704382181 1 1 0
66 1 4 0.0 0.7190819383 -0.298227936 -0.6352440715 -1 0 0
67 1 2 0.0 0.5672456026 -0.1014738679 -0.3627302051 -1 0 0
68 1 6 0.0 0.5363855958 0.1386381686 -0.0340107605 -1 0 0
69 1 2 0.0 0.7750570178 0.3014692068 0.3755348921 -1 0 0
70 1 5 0.0 1.0814393759 0.2861996591 0.7836948037 -1 0 0
71 1 4 0.0 -0.7545032501 0.6825185418 0.5360050797 0 -1 0
72 1 2 0.0 -0.6548855901 1.0952892303 0.8487971425 0 -1 0
73 1 6 0.0 -0.4951162338 -1.3483765125 0.9872885942 0 0 0
74 1 2 0.0 -0.1780712903 -1.019299984 1.1594451666 0 0 0
75 1 5 0.0 0.2160484493 -0.8435313106 1.3705757856 0 0 0
76 1 4 0.0 0.0720740929 0.770075798 -1.3691153526 0 0 0
77 1 2 0.0 -0.2290905565 0.8742055297 -0.9562432766 0 0 0
78 1 6 0.0 -0.4020915031 1.1006406546 -0.6141999364 0 0 0
79 1 2 0.0 -0.4034415781 1.3492716551 -0.3140928745 0 0 0
80 1 5 0.0 -0.2976875007 -1.2450773716 0.1084758937 0 1 0
81 1 4 0.0 0.6979423165 -1.3495463133 0.5164360404 -1 1 0
82 1 2 0.0 1.0979042053 -1.3554486036 0.4175203741 -1 1 0
83 1 6 0.0 -1.3030786514 -1.3711912632 0.2400051802 0 1 0
84 1 2 0.0 -0.8957471848 -1.2975599766 -0.0435207933 0 1 0
85 1 5 0.0 -0.678448081 -1.0732178688 -0.4598338902 0 1 0
86 1 4 0.0 0.3998408616 1.424243927 -0.1230034977 0 0 0
87 1 2 0.0 0.3041984439 1.1203333139 -0.3628608882 0 0 0
88 1 6 0.0 0.165289849 0.7474036813 -0.656789422 0 0 0
89 1 2 0.0 -0.0459570736 0.405423373 -0.9960605502 0 0 0
90 1 5 0.0 -0.2989583313 0.3379426301 -1.3355519772 0 0 0
91 1 4 0.0 -0.2050139457 0.0366383269 -0.5176268816 0 0 0
92 1 2 0.0 -0.0572390743 0.3114546537 -0.2090586871 0 0 0
93 1 6 0.0 0.2723574638 0.6198638678 0.0078678429 0 0 0
94 1 2 0.0 0.6440514922 0.8292047381 0.1120127589 0 0 0
95 1 5 0.0 1.1100794077 1.0750169754 0.0970950723 0 0 0
96 1 4 0.0 0.005835562 -0.7218319774 0.2892699242 0 0 0
97 1 2 0.0 -0.300316453 -0.3110050261 0.1309957206 0 0 0
98 1 6 0.0 -0.6983257532 0.0474186651 -0.070902586 0 0 0
99 1 2 0.0 -0.8886142373 0.3825623393 -0.3893818557 0 0 0
100 1 5 0.0 -0.8522619009 0.7442654967 -0.7256602645 0 0 0
101 1 4 0.0 0.3113755584 -0.6472598314 -0.3672416508 0 0 0
102 1 2 0.0 0.3562653065 -0.3946306407 0.0504350401 0 0 0
103 1 6 0.0 0.336422056 -0.1440748423 0.4033228457 0 0 0
104 1 2 0.0 0.2671990991 0.2410989106 0.603343308 0 0 0
105 1 5 0.0 0.2452162355 0.686607182 0.5611499548 0 0 0
106 1 4 0.0 1.3808172941 0.3046222925 -0.428442806 -1 0 0
107 1 2 0.0 -1.2421603203 0.3620380461 -0.9078879356 0 0 0
108 1 6 0.0 -0.9488859773 0.4390532374 -1.3193277121 0 0 0
109 1 2 0.0 -0.6103411317 0.6195178628 1.2158377171 0 0 -1
110 1 5 0.0 -0.1658089757 0.7900328636 0.9907982945 0 0 -1
111 1 4 0.0 0.8457459211 -0.7353809476 -0.2616144121 -1 0 0
112 1 2 0.0 1.1484678984 -0.5926989317 -0.3861211538 -1 0 0
113 1 6 0.0 -1.4089004993 -0.3417535126 -0.5771499276 0 0 0
114 1 2 0.0 -1.2906669378 -0.1568879783 -0.9672213793 0 0 0
115 1 5 0.0 -1.3313245773 0.0347352102 -1.3432602882 0 0 0
116 1 4 0.0 -1.3712654114 -0.8811629415 0.3687150776 -1 1 0
117 1 2 0.0 -0.916148901 -1.0557696819 0.4129325449 -1 1 0
118 1 6 0.0 -0.6617231965 -1.3106609583 0.4456214607 -1 1 0
119 1 2 0.0 -0.3887758255 1.1568208933 0.4377518296 -1 0 0
120 1 5 0.0 -0.2492243052 0.7713187933 0.4396242201 -1 0 0
121 1 4 0.0 -0.5907750726 -0.527371347 -0.3309357166 1 0 0
122 1 2 0.0 -0.1903466731 -0.5418563485 -0.6335173845 1 0 0
123 1 6 0.0 0.2047409266 -0.4096931815 -1.1164736748 1 0 0
124 1 2 0.0 0.4767327905 -0.3408074677 1.2347666025 1 0 -1
125 1 5 0.0 0.8130199909 -0.2507328391 0.7102349401 1 0 -1
126 1 4 0.0 -0.1605962366 0.8843253851 -0.2234241962 0 0 0
127 1 2 0.0 -0.3796571195 0.5917989612 -0.5034819841 0 0 0
128 1 6 0.0 -0.6009043455 0.2911215127 -0.8335980177 0 0 0
129 1 2 0.0 -0.7525286078 -0.0202192515 -1.1591857672 0 0 0
130 1 5 0.0 -0.8539973497 -0.3786824346 1.41423738 0 0 -1
131 1 4 0.0 0.7199274302 -0.123763077 -1.2250959873 0 0 0
132 1 2 0.0 0.6860881448 0.2540193498 -1.1953306198 0 0 0
133 1 6 0.0 0.6234492064 0.7225346565 -1.3064796925 0 0 0
134 1 2 0.0 0.6855956912 1.1874474287 -1.4105246067 0 0 0
135 1 5 0.0 0.814152658 -1.2122522593 1.2610793114 0 1 -1
136 1 4 0.0 1.3667595387 -0.8334196806 -0.7936093211 0 1 0
137 1 2 0.0 -1.2146286964 -1.201322794 -0.6269247532 1 1 0
138 1 6 0.0 -1.0044968128 1.2636945248 -0.4948720336 1 0 0
139 1 2 0.0 -0.7884637117 0.8798916936 -0.271537751 1 0 0
140 1 5 0.0 -0.5619532466 0.5944866538 -0.0326143317 1 0 0
141 1 4 0.0 0.9138895869 -1.2727595568 -0.0956671983 -1 0 0
142 1 2 0.0 0.8474249244 1.1250158548 -0.3737030625 -1 -1 0
143 1 6 0.0 0.7401375175 0.7004461288 -0.5022811294 -1 -1 0
144 1 2 0.0 0.5686115623 0.3255628943 -0.72988379 -1 -1 0
145 1 5 0.0 0.2991735935 0.038092684 -0.9036235213 -1 -1 0
146 1 4 0.0 -0.4063688219 1.0988340378 -1.4235838652 0 -1 0
147 1 2 0.0 0.009010301 1.3039864302 1.2028704882 0 -1 -1
148 1 6 0.0 0.4099911749 -1.2407405376 0.9574285746 0 0 -1
149 1 2 0.0 0.787437737 -0.8950643539 0.8279985189 0 0 -1
150 1 5 0.0 1.1637251377 -0.6311615109 0.6934025288 0 0 -1
151 1 4 0.0 0.8692872524 1.0012295246 -0.9316992164 0 -1 1
152 1 2 0.0 0.4136092365 1.1590664387 -0.9316300154 0 -1 1
153 1 6 0.0 0.0929508358 1.3306390047 -1.0698078871 0 -1 1
154 1 2 0.0 -0.2292694449 -1.2877341509 -1.2674235106 0 0 1
155 1 5 0.0 -0.5402641296 -1.103020072 -1.3737469912 0 0 1
156 1 4 0.0 -1.2045166492 -1.0081902742 -1.1951032877 1 0 0
157 1 2 0.0 1.3480206728 -1.2374801636 1.3727347851 0 0 -1
158 1 6 0.0 1.1860821247 1.325062871 0.9954817891 0 -1 -1
159 1 2 0.0 1.2040688992 1.0203262568 0.5741838813 0 -1 -1
160 1 5 0.0 1.3748395443 0.6722427011 0.3852720857 0 -1 -1

Bonds

1 1 1 2
2 12 1 125
3 2 2 3
4 7 3 121
5 1 4 5
6 11 4 146
7 12 4 100
8 2 5 6
9 1 7 8
10 12 7 140
11 12 7 120
12 2 8 9
13 8 9 90
14 1 10 11
15 12 10 95
16 2 11 12
17 1 13 14
18 12 13 150
19 2 14 15
20 8 15 160
21 7 15 71
22 1 16 17
23 12 16 85
24 11 16 156
25 2 17 18
26 8 18 145
27 7 18 91
28 1 19 20
29 2 20 21
30 8 21 75
31 7 21 131
32 1 22 23
33 2 23 24
34 8 24 70
35 8 24 115
36 1 25 26
37 11 25 106
38 2 26 27
39 7 27 141
40 7 27 116
41 1 28 29
42 11 28 111
43 11 28 86
44 2 29 30
45 1 31 32
46 2 32 33
47 1 34 35
48 11 34 76
49 2 35 36
50 1 37 38
51 2 38 39
52 8 39 110
53 1 40 41
54 11 40 96
55 11 40 81
56 2 41 42
57 8 42 105
58 7 42 126
59 1 43 44
60 11 43 101
61 2 44 45
62 1 46 47
63 12 46 80
64 2 47 48
65 8 48 130
66 8 48 155
67 1 49 50
68 2 50 51
69 1 52 53
70 2 53 54
71 1 55 56
72 11 55 66
73 11 55 136
74 2 56 57
75 8 57 65
76 8 57 135
77 1 58 59
78 11 58 61
79 11 58 151
80 2 59 60
81 5 61 62
82 4 62 63
83 4 63 64
84 3 64 65
85 5 66 67
86 4 67 68
87 4 68 69
88 3 69 70
89 5 71 72
90 4 72 73
91 4 73 74
92 3 74 75
93 5 76 77
94 4 77 78
95 4 78 79
96 3 79 80
97 5 81 82
98 4 82 83
99 4 83 84
100 3 84 85
101 5 86 87
102 4 87 88
103 4 88 89
104 3 89 90
105 5 91 92
106 4 92 93
107 4 93 94
108 3 94 95
109 5 96 97
110 4 97 98
111 4 98 99
112 3 99 100
113 5 101 102
114 4 102 103
115 4 103 104
116 3 104 105
117 5 106 107
118 4 107 108
119 4 108 109
120 3 109 110
121 5 111 112
122 4 112 113
123 4 113 114
124 3 114 115
125 5 116 117
126 4 117 118
127 4 118 119
128 3 119 120
129 5 121 122
130 4 122 123
131 4 123 124
132 3 124 125
133 5 126 127
134 4 127 128
135 4 128 129
136 3 129 130
137 5 131 132
138 4 132 133
139 4 133 134
140 3 134 135
141 5 136 137
142 4 137 138
143 4 138 139
144 3 139 140
145 5 141 142
146 4 142 143
147 4 143 144
148 3 144 145
149 5 146 147
150 4 147 148
151 4 148 149
152 3 149 150
153 5 151 152
154 4 152 153
155 4 153 154
156 3 154 155
157 5 156 157
158 4 157 158
159 4 158 159
160 3 159 160
