# LAMMPS data file written by Ovito 3.0.0-dev349
160 atoms
160 bonds
6 atom types
12 bond types
-1.4330887795 1.4330887795 xlo xhi
-1.4330887795 1.4330887795 ylo yhi
-1.4330887795 1.4330887795 zlo zhi

Atoms # full

1 1 1 0.0 1.2196285725 -0.167754218 0.5655424595 0 0 0
2 1 2 0.0 -1.3633269072 -0.3563766479 0.1286164522 1 0 0
3 1 3 0.0 -0.9985558391 -0.6405598521 -0.1090836748 1 0 0
4 1 1 0.0 -0.8653555512 0.9378999472 -1.2447525263 1 0 1
5 1 2 0.0 -1.2051948309 0.8924845457 1.3580639362 1 0 0
6 1 3 0.0 -1.3856830597 0.8527690172 0.9113215208 1 0 0
7 1 1 0.0 -0.1957032531 0.2820857763 0.257427603 1 -1 0
8 1 2 0.0 -0.3891544938 0.072519362 0.61199826 1 -1 0
9 1 3 0.0 -0.6508274674 0.082865186 1.0927970409 1 -1 0
10 1 1 0.0 1.3601839542 1.3635798693 -0.2023584247 -1 -1 0
11 1 2 0.0 1.1711974144 1.3324460983 -0.5868156552 -1 -1 0
12 1 3 0.0 1.0560216904 -1.3559502363 -1.0730540752 -1 0 0
13 1 1 0.0 -1.1255093813 -0.4574392438 0.6608781815 0 0 0
14 1 2 0.0 -1.0015361309 0.0110579962 0.4048038423 0 0 0
15 1 3 0.0 -1.1134123802 0.4167610109 0.30049932 0 0 0
16 1 1 0.0 -0.7517634034 -0.859593153 -1.0012873411 -1 0 1
17 1 2 0.0 -0.4820692837 -0.5424752235 -1.1378042698 -1 0 1
18 1 3 0.0 -0.2892492414 -0.0991247967 -0.9647753835 -1 0 1
19 1 1 0.0 0.5854051113 -1.2056398392 -0.5476564765 -1 0 1
20 1 2 0.0 0.6295485497 -0.8860605955 -0.8136561513 -1 0 1
21 1 3 0.0 0.5667049885 -0.6759864688 -1.1545341015 -1 0 1
22 1 1 0.0 0.9669536352 0.4887096882 -0.7165244222 0 0 1
23 1 2 0.0 1.0988695621 0.5254226327 -1.1836147308 0 0 1
24 1 3 0.0 1.3503172398 0.4036998451 1.3866374493 0 0 0
25 1 1 0.0 1.2359875441 0.0601541512 -0.0752224401 0 0 1
26 1 2 0.0 1.0196397305 -0.3441458046 0.0285348333 0 0 1
27 1 3 0.0 1.1078413725 -0.7692251205 0.1475900263 0 0 1
28 1 1 0.0 0.5047978759 -0.8148396015 0.0098090935 0 0 0
29 1 2 0.0 0.4789549708 -0.5774237514 0.4843769968 0 0 0
30 1 3 0.0 0.2230974138 -0.3576556742 0.7455558777 0 0 0
31 1 1 0.0 -0.2877914011 -0.4071886837 0.9127300382 0 1 0
32 1 2 0.0 -0.073572576 -0.2437509894 1.2945227623 0 1 0
33 1 3 0.0 0.1478410661 0.1036388502 -1.3709688187 0 1 1
34 1 1 0.0 0.1827581972 0.3195334673 1.0201593637 0 -1 -1
35 1 2 0.0 0.5671327114 0.0467470437 1.0913822651 0 -1 -1
36 1 3 0.0 0.9871782064 -0.0141067598 1.3040316105 0 -1 -1
37 1 1 0.0 1.16365695 0.936912179 1.2943665981 0 0 0
38 1 2 0.0 0.8491954207 0.8866428137 0.9448085427 0 0 0
39 1 3 0.0 0.4186114073 1.0077201128 0.762919724 0 0 0
40 1 1 0.0 0.3791967928 -1.1937606335 0.4489223957 0 0 0
41 1 2 0.0 0.1961430758 1.3708918095 0.3995645046 0 -1 0
42 1 3 0.0 0.1780513972 0.9939842224 0.2094703019 0 -1 0
43 1 1 0.0 0.1142173409 -0.9693567753 -0.8399010301 0 0 0
44 1 2 0.0 -0.2389130443 -1.1276566982 -0.7133415937 0 0 0
45 1 3 0.0 -0.6006910801 -1.3824168444 -0.8188163638 0 0 0
46 1 1 0.0 -0.2197983414 -1.037317276 0.5503274202 1 0 0
47 1 2 0.0 -0.6078901887 -0.8815840483 0.8338057995 1 0 0
48 1 3 0.0 -0.7759958506 -0.8049038053 1.24279356 1 0 0
49 1 1 0.0 -0.6563155055 -0.4932735562 0.4172722101 0 1 0
50 1 2 0.0 -0.4681656063 -0.8181696534 0.0955452919 0 1 0
51 1 3 0.0 -0.1428764015 -0.9008427858 -0.2389418632 0 1 0
52 1 1 0.0 -1.2830245495 -0.564942956 1.2938020229 0 1 0
53 1 2 0.0 -1.305926919 -0.1305881292 1.0042625666 0 1 0
54 1 3 0.0 -1.2101787329 0.3375293612 0.9959070086 0 1 0
55 1 1 0.0 1.0383191109 -0.5324819684 -0.9809556603 -1 0 1
56 1 2 0.0 1.0620290041 -0.5303848386 -1.4048861265 -1 0 1
57 1 3 0.0 1.0854897499 -0.7762643695 1.1727172136 -1 0 0
58 1 1 0.0 1.3945351839 0.8797261715 -0.8666306734 -1 0 0
59 1 2 0.0 -1.2119847536 1.2819343805 -1.0651717186 0 0 0
60 1 3 0.0 -0.8845114112 1.3962401152 1.3683736324 0 0 -1
61 1 4 0.0 -1.3575201035 0.8519870043 -0.3770200014 1 0 0
62 1 2 0.0 -1.2594941854 0.9475262761 0.020875793 1 0 0
63 1 6 0.0 -1.2030267715 1.1780292988 0.426371038 1 0 0
64 1 2 0.0 -1.1866238117 -1.3742593527 0.6889504194 1 1 0
65 1 5 0.0 -1.4068650007 -1.0682233572 0.8620844483 1 1 0
66 1 4 0.0 0.7690596581 -0.2763999701 -0.5832714438 -1 0 0
67 1 2 0.0 0.676612556 0.0029203354 -0.2295839339 -1 0 0
68 1 6 0.0 0.7143832445 0.17826657 0.1462272257 -1 0 0
69 1 2 0.0 0.8549909592 0.3287701011 0.5493414998 -1 0 0
70 1 5 0.0 1.1038844585 0.3864139318 0.9557533264 -1 0 0
71 1 4 0.0 -0.9314105511 0.7634988427 0.6253722906 0 -1 0
72 1 2 0.0 -0.7976713777 1.1068130732 0.8202076554 0 -1 0
73 1 6 0.0 -0.447114408 -1.3883696795 0.9438946247 0 0 0
74 1 2 0.0 -0.1309283227 -1.0797423124 1.1211539507 0 0 0
75 1 5 0.0 0.1467125267 -0.8705622554 1.4097673893 0 0 0
76 1 4 0.0 0.0291211959 0.6518656611 1.4127937555 0 0 -1
77 1 2 0.0 -0.0400697626 0.9449743032 -1.099317193 0 0 0
78 1 6 0.0 -0.2462238818 1.1728433371 -0.7009818554 0 0 0
79 1 2 0.0 -0.3325658143 1.3771191835 -0.3764605224 0 0 0
80 1 5 0.0 -0.2657425106 -1.2756263018 0.0871107355 0 1 0
81 1 4 0.0 0.9109882712 -1.243113637 0.429728806 -1 1 0
82 1 2 0.0 1.3456120491 -1.2968161106 0.2477881908 -1 1 0
83 1 6 0.0 -1.1197010279 -1.2555769682 0.0198938176 0 1 0
84 1 2 0.0 -0.8645249009 -1.1232513189 -0.2322541028 0 1 0
85 1 5 0.0 -0.7501615882 -1.0040990114 -0.5227405429 0 1 0
86 1 4 0.0 0.2656903565 -1.2924232483 -0.1500239521 0 1 0
87 1 2 0.0 0.1676575989 1.1445317268 -0.4056761861 0 0 0
88 1 6 0.0 0.0889772028 0.7819847465 -0.6308377385 0 0 0
89 1 2 0.0 -0.1142350882 0.4787652493 -0.9202654958 0 0 0
90 1 5 0.0 -0.3968085349 0.2563826442 -1.3345962763 0 0 0
91 1 4 0.0 -0.3116537333 0.1147715822 -0.4759998322 0 0 0
92 1 2 0.0 -0.0292880014 0.2818313241 -0.2506642044 0 0 0
93 1 6 0.0 0.3072368205 0.478844136 -0.0348864123 0 0 0
94 1 2 0.0 0.7281981111 0.6940162182 0.1058561504 0 0 0
95 1 5 0.0 1.0861413479 0.9967978597 0.0291001108 0 0 0
96 1 4 0.0 0.0196400024 -0.7263633609 0.2678768933 0 0 0
97 1 2 0.0 -0.2497974336 -0.3592970967 0.1045043319 0 0 0
98 1 6 0.0 -0.5793013573 -0.0584276244 -0.0293285549 0 0 0
99 1 2 0.0 -0.854562223 0.3033335209 -0.3925477564 0 0 0
100 1 5 0.0 -0.9264851809 0.7056230903 -0.7751660943 0 0 0
101 1 4 0.0 0.3013626933 -0.6289865375 -0.516310513 0 0 0
102 1 2 0.0 0.3053703308 -0.3710519969 -0.154762581 0 0 0
103 1 6 0.0 0.3007669747 -0.1316399425 0.2458244413 0 0 0
104 1 2 0.0 0.2783699334 0.1731693596 0.5111593604 0 0 0
105 1 5 0.0 0.2665553093 0.594702065 0.5191627145 0 0 0
106 1 4 0.0 1.4019280672 0.2180395871 -0.5905712247 -1 0 0
107 1 2 0.0 -1.1687896252 0.2919132113 -1.0526797771 0 0 0
108 1 6 0.0 -0.9284890294 0.4297602177 -1.3982874155 0 0 0
109 1 2 0.0 -0.5110701919 0.59631145 1.1409900188 0 0 -1
110 1 5 0.0 -0.0598469116 0.8398676515 0.915094316 0 0 -1
111 1 4 0.0 0.8638908863 -0.7278298736 -0.3329737782 -1 0 0
112 1 2 0.0 1.1688325405 -0.6255069375 -0.4874331951 -1 0 0
113 1 6 0.0 -1.3352893591 -0.5329415798 -0.7047061324 0 0 0
114 1 2 0.0 -1.2089158297 -0.419883579 -1.0786579847 0 0 0
115 1 5 0.0 -1.2765690088 -0.0831646398 -1.3615925312 0 0 0
116 1 4 0.0 -1.3212413788 -0.8430134654 0.3280507922 -1 1 0
117 1 2 0.0 -0.9941145778 -0.9789621234 0.4384664297 -1 1 0
118 1 6 0.0 -0.6324846745 -1.3090348244 0.4594832957 -1 1 0
119 1 2 0.0 -0.3688470721 1.1795188189 0.4988197982 -1 0 0
120 1 5 0.0 -0.2449231446 0.8125238419 0.407676816 -1 0 0
121 1 4 0.0 -0.5294666886 -0.5282726884 -0.4221898317 1 0 0
122 1 2 0.0 -0.1674928367 -0.4998221993 -0.6768949032 1 0 0
123 1 6 0.0 0.1560475379 -0.4366430044 -1.0945528746 1 0 0
124 1 2 0.0 0.4226787984 -0.4273646772 1.2514654398 1 0 -1
125 1 5 0.0 0.8291671276 -0.391821295 0.8712670803 1 0 -1
126 1 4 0.0 -0.1868693084 0.8674573302 -0.1578097492 0 0 0
127 1 2 0.0 -0.4333711267 0.6872887611 -0.546423316 0 0 0
128 1 6 0.0 -0.6284911633 0.3129976094 -0.8459770083 0 0 0
129 1 2 0.0 -0.7763166428 -0.0326112583 -1.170234561 0 0 0
130 1 5 0.0 -0.8050655723 -0.3245287538 1.3964179754 0 0 -1
131 1 4 0.0 0.6076588631 -0.097183615 -1.2012703419 0 0 0
132 1 2 0.0 0.5958507657 0.4002062976 -1.3710974455 0 0 0
133 1 6 0.0 0.5620461106 0.8475887179 1.4323648214 0 0 -1
134 1 2 0.0 0.663926661 1.3308745623 1.4027642012 0 0 -1
135 1 5 0.0 0.8425751925 -1.2100571394 1.3345513344 0 1 -1
136 1 4 0.0 1.306978941 -0.9754142761 -0.8252363801 0 1 0
137 1 2 0.0 -1.2445617914 -1.261808157 -0.6565955281 1 1 0
138 1 6 0.0 -1.0211330652 1.2968804836 -0.4581496119 1 0 0
139 1 2 0.0 -0.8244268298 0.9036195278 -0.2568230331 1 0 0
140 1 5 0.0 -0.5533232093 0.5073658228 -0.0629336387 1 0 0
141 1 4 0.0 0.8927787542 -1.1876510382 -0.0796403736 -1 0 0
142 1 2 0.0 0.7381100059 1.2798051834 -0.2247676253 -1 -1 0
143 1 6 0.0 0.6437107921 0.8735221624 -0.4609324634 -1 -1 0
144 1 2 0.0 0.4373966753 0.3774427176 -0.670314312 -1 -1 0
145 1 5 0.0 0.1767636985 0.0320564732 -0.8464817405 -1 -1 0
146 1 4 0.0 -0.3848320544 1.0636261702 1.3531463146 0 -1 -1
147 1 2 0.0 0.0539195128 1.3050625324 1.2112051249 0 -1 -1
148 1 6 0.0 0.3917064667 -1.2809122801 1.0535411835 0 0 -1
149 1 2 0.0 0.7400432229 -0.9887193441 0.8552758098 0 0 -1
150 1 5 0.0 1.2512904406 -0.6452798843 0.728808701 0 0 -1
151 1 4 0.0 0.9118562341 1.0230324268 -0.9310494065 0 -1 1
152 1 2 0.0 0.5712041259 1.1417728662 -0.9550122619 0 -1 1
153 1 6 0.0 0.1838518232 1.4050174952 -1.0257822275 0 -1 1
154 1 2 0.0 -0.1071665585 -1.2741382122 -1.1808176041 0 0 1
155 1 5 0.0 -0.4693744183 -1.1061688662 -1.3731122017 0 0 1
156 1 4 0.0 -1.1174657345 -1.0473741293 -1.2883166075 1 0 0
157 1 2 0.0 1.3872816563 -1.2135227919 1.3352534771 0 0 -1
158 1 6 0.0 1.1545932293 1.3880791664 0.9441729784 0 -1 -1
159 1 2 0.0 1.12187922 1.0893554688 0.5761407018 0 -1 -1
160 1 5 0.0 1.2564058304 0.6388865709 0.3736917377 0 -1 -1

Bonds

1 1 1 2
2 12 1 125
3 2 2 3
4 7 3 121
5 1 4 5
6 11 4 146
7 12 4 100
8 2 5 6
9 1 7 8
10 12 7 140
11 12 7 120
12 2 8 9
13 8 9 90
14 1 10 11
15 12 10 95
16 2 11 12
17 1 13 14
18 12 13 150
19 2 14 15
20 8 15 160
21 7 15 71
22 1 16 17
23 12 16 85
24 11 16 156
25 2 17 18
26 8 18 145
27 7 18 91
28 1 19 20
29 2 20 21
30 8 21 75
31 7 21 131
32 1 22 23
33 2 23 24
34 8 24 70
35 8 24 115
36 1 25 26
37 11 25 106
38 2 26 27
39 7 27 141
40 7 27 116
41 1 28 29
42 11 28 111
43 11 28 86
44 2 29 30
45 1 31 32
46 2 32 33
47 1 34 35
48 11 34 76
49 2 35 36
50 1 37 38
51 2 38 39
52 8 39 110
53 1 40 41
54 11 40 96
55 11 40 81
56 2 41 42
57 8 42 105
58 7 42 126
59 1 43 44
60 11 43 101
61 2 44 45
62 1 46 47
63 12 46 80
64 2 47 48
65 8 48 130
66 8 48 155
67 1 49 50
68 2 50 51
69 1 52 53
70 2 53 54
71 1 55 56
72 11 55 66
73 11 55 136
74 2 56 57
75 8 57 65
76 8 57 135
77 1 58 59
78 11 58 61
79 11 58 151
80 2 59 60
81 5 61 62
82 4 62 63
83 4 63 64
84 3 64 65
85 5 66 67
86 4 67 68
87 4 68 69
88 3 69 70
89 5 71 72
90 4 72 73
91 4 73 74
92 3 74 75
93 5 76 77
94 4 77 78
95 4 78 79
96 3 79 80
97 5 81 82
98 4 82 83
99 4 83 84
100 3 84 85
101 5 86 87
102 4 87 88
103 4 88 89
104 3 89 90
105 5 91 92
106 4 92 93
107 4 93 94
108 3 94 95
109 5 96 97
110 4 97 98
111 4 98 99
112 3 99 100
113 5 101 102
114 4 102 103
115 4 103 104
116 3 104 105
117 5 106 107
118 4 107 108
119 4 108 109
120 3 109 110
121 5 111 112
122 4 112 113
123 4 113 114
124 3 114 115
125 5 116 117
126 4 117 118
127 4 118 119
128 3 119 120
129 5 121 122
130 4 122 123
131 4 123 124
132 3 124 125
133 5 126 127
134 4 127 128
135 4 128 129
136 3 129 130
137 5 131 132
138 4 132 133
139 4 133 134
140 3 134 135
141 5 136 137
142 4 137 138
143 4 138 139
144 3 139 140
145 5 141 142
146 4 142 143
147 4 143 144
148 3 144 145
149 5 146 147
150 4 147 148
151 4 148 149
152 3 149 150
153 5 151 152
154 4 152 153
155 4 153 154
156 3 154 155
157 5 156 157
158 4 157 158
159 4 158 159
160 3 159 160
