# LAMMPS data file written by Ovito 3.0.0-dev349
160 atoms
160 bonds
6 atom types
12 bond types
-1.433907151 1.433907151 xlo xhi
-1.433907151 1.433907151 ylo yhi
-1.433907151 1.433907151 zlo zhi

Atoms # full

1 1 1 0.0 1.1891176701 -0.1501096338 0.525167346 0 0 0
2 1 2 0.0 -1.3757510185 -0.3500807881 0.0624176227 1 0 0
3 1 3 0.0 -1.1364815235 -0.683055222 -0.1961797178 1 0 0
4 1 1 0.0 -0.8382337689 0.9971986413 -1.2602328062 1 0 1
5 1 2 0.0 -1.1473927498 0.9155864716 1.3320661783 1 0 0
6 1 3 0.0 -1.2764592171 0.9158835411 0.938211143 1 0 0
7 1 1 0.0 -0.258535713 0.396034658 0.2309049219 1 -1 0
8 1 2 0.0 -0.4680272937 0.1189658046 0.5157060623 1 -1 0
9 1 3 0.0 -0.6047773957 -0.0309179388 0.9898098707 1 -1 0
10 1 1 0.0 1.3855925798 1.1629287004 0.1286741644 -1 -1 0
11 1 2 0.0 1.4009162188 1.2682799101 -0.4291085899 -1 -1 0
12 1 3 0.0 1.2626941204 -1.3795394897 -0.8182589412 -1 0 0
13 1 1 0.0 -1.1527998447 -0.5501218438 0.8250394464 0 0 0
14 1 2 0.0 -0.9919734597 -0.1697268635 0.5820269585 0 0 0
15 1 3 0.0 -1.0798311234 0.2599981725 0.3076942265 0 0 0
16 1 1 0.0 -0.7173265219 -0.7794947028 -0.9677783251 -1 0 1
17 1 2 0.0 -0.4086510241 -0.4867090881 -1.1544657946 -1 0 1
18 1 3 0.0 -0.1965583712 -0.0935408771 -1.0410377979 -1 0 1
19 1 1 0.0 0.7066457272 -1.2978161573 -0.4909332097 -1 0 1
20 1 2 0.0 0.7338446975 -1.0954557657 -0.9002352953 -1 0 1
21 1 3 0.0 0.5736916661 -0.7769452333 -1.2743314505 -1 0 1
22 1 1 0.0 0.9989885688 0.5417141914 -0.9092694521 0 0 1
23 1 2 0.0 1.2815387249 0.6049592495 -1.315743804 0 0 1
24 1 3 0.0 1.4226346016 0.4061428308 1.2420246601 0 0 0
25 1 1 0.0 1.0962250233 0.1462654918 -0.0187408384 0 0 1
26 1 2 0.0 0.9237567186 -0.3030461073 0.113142997 0 0 1
27 1 3 0.0 1.0539478064 -0.7680789232 0.2759147286 0 0 1
28 1 1 0.0 0.5965616107 -0.8782545328 0.0619294755 0 0 0
29 1 2 0.0 0.5119352341 -0.7278257608 0.4151767194 0 0 0
30 1 3 0.0 0.2176462263 -0.7326946855 0.8413007259 0 0 0
31 1 1 0.0 -0.2236525416 -0.3561886549 0.6839774847 0 1 0
32 1 2 0.0 -0.0564289764 -0.2248543054 1.1611429453 0 1 0
33 1 3 0.0 0.1825774163 0.0454754569 -1.414206028 0 1 1
34 1 1 0.0 0.2544255257 0.4834499955 0.9996826053 0 -1 -1
35 1 2 0.0 0.6875488162 0.2538877726 1.1077224016 0 -1 -1
36 1 3 0.0 1.0388162136 0.0037644932 1.3974512815 0 -1 -1
37 1 1 0.0 0.9674218893 0.8215773106 1.1369372606 0 0 0
38 1 2 0.0 0.5602248907 1.0130654573 0.9237453341 0 0 0
39 1 3 0.0 0.0447268896 1.017187953 0.6794753075 0 0 0
40 1 1 0.0 0.2409809083 -1.1915394068 0.4001411796 0 0 0
41 1 2 0.0 0.0849115923 1.3745083809 0.2649127543 0 -1 0
42 1 3 0.0 0.1542385817 0.9977582693 0.106215395 0 -1 0
43 1 1 0.0 0.115452148 -0.9178097844 -0.9048548341 0 0 0
44 1 2 0.0 -0.2297151089 -1.092772603 -0.8196478486 0 0 0
45 1 3 0.0 -0.7030786872 -1.3211447001 -0.9458770752 0 0 0
46 1 1 0.0 -0.2953015566 -0.9898402691 0.5863055587 1 0 0
47 1 2 0.0 -0.650247097 -0.7652816176 0.8649813533 1 0 0
48 1 3 0.0 -0.8476925492 -0.8146890402 1.1923927069 1 0 0
49 1 1 0.0 -0.8165017962 -0.4854415953 0.2173864692 0 1 0
50 1 2 0.0 -0.5666199327 -0.773884654 0.0846857131 0 1 0
51 1 3 0.0 -0.2107423842 -0.8776997924 -0.2521490157 0 1 0
52 1 1 0.0 1.3471925259 -0.3179550469 1.128719449 -1 1 0
53 1 2 0.0 -1.2978140116 -0.0549810901 0.996091187 0 1 0
54 1 3 0.0 -1.1593806744 0.3333402574 0.781858623 0 1 0
55 1 1 0.0 1.1165316105 -0.4947521389 -0.98295331 -1 0 1
56 1 2 0.0 1.0729885101 -0.556961596 -1.3542889357 -1 0 1
57 1 3 0.0 1.061427474 -0.8084269166 1.2533575296 -1 0 0
58 1 1 0.0 -1.3785614967 0.9512404799 -0.8579297662 0 0 0
59 1 2 0.0 -1.2338153124 1.3396446705 -1.1747009754 0 0 0
60 1 3 0.0 -0.9846510291 -1.4011667967 1.2988365889 0 1 -1
61 1 4 0.0 -1.1285239458 0.8272491693 -0.3719427288 1 0 0
62 1 2 0.0 -1.0062042475 0.9263063073 0.0426114127 1 0 0
63 1 6 0.0 -1.0410442352 1.1426323652 0.4126450717 1 0 0
64 1 2 0.0 -1.1825846434 -1.3942285776 0.7450278997 1 1 0
65 1 5 0.0 -1.4114608765 -1.0615483522 0.9911731482 1 1 0
66 1 4 0.0 0.7547319531 -0.2332316041 -0.6639788747 -1 0 0
67 1 2 0.0 0.6020320654 -0.0629218221 -0.2955352962 -1 0 0
68 1 6 0.0 0.5886012912 0.1142862737 0.1330730617 -1 0 0
69 1 2 0.0 0.7924559712 0.1961639971 0.485509038 -1 0 0
70 1 5 0.0 1.1309967041 0.3113080263 0.8171419501 -1 0 0
71 1 4 0.0 -0.8409754634 0.671112895 0.5613536835 0 -1 0
72 1 2 0.0 -0.7781134248 1.1114683151 0.8659963608 0 -1 0
73 1 6 0.0 -0.5659462214 -1.3531559706 1.0127075911 0 0 0
74 1 2 0.0 -0.1870851368 -0.9988472462 1.1066138744 0 0 0
75 1 5 0.0 0.1725503355 -0.8545996547 1.3193113804 0 0 0
76 1 4 0.0 0.0423463471 0.7800088525 1.3413655758 0 0 -1
77 1 2 0.0 -0.0507663935 1.0165047646 -1.1310727596 0 0 0
78 1 6 0.0 -0.196077466 1.2030277252 -0.7666302919 0 0 0
79 1 2 0.0 -0.2987076044 -1.4211218357 -0.3427649438 0 1 0
80 1 5 0.0 -0.3209437728 -1.2077233791 0.1168318614 0 1 0
81 1 4 0.0 0.7000849247 -1.2705579996 0.5188250542 -1 1 0
82 1 2 0.0 1.2123578787 -1.2948409319 0.4725597501 -1 1 0
83 1 6 0.0 -1.2359608412 -1.2916657925 0.2114655375 0 1 0
84 1 2 0.0 -0.9505874515 -1.1861001253 -0.1003069207 0 1 0
85 1 5 0.0 -0.7210766673 -1.0438617468 -0.4863238037 0 1 0
86 1 4 0.0 0.4884171486 -1.386903286 -0.0745130628 0 1 0
87 1 2 0.0 0.3578042686 1.0997956991 -0.388515681 0 0 0
88 1 6 0.0 0.2498890907 0.7646865249 -0.7946308255 0 0 0
89 1 2 0.0 0.0295702796 0.4722218812 -1.1184431314 0 0 0
90 1 5 0.0 -0.3235372603 0.2166350037 1.3998117447 0 0 -1
91 1 4 0.0 -0.2701333761 0.0730616003 -0.5647488832 0 0 0
92 1 2 0.0 -0.0915608704 0.2622913122 -0.2759282589 0 0 0
93 1 6 0.0 0.2616097033 0.4618912041 -0.0391461179 0 0 0
94 1 2 0.0 0.6298092604 0.6818628311 0.1533605903 0 0 0
95 1 5 0.0 0.9443150163 0.8953461051 0.1648708135 0 0 0
96 1 4 0.0 0.0313525796 -0.697606802 0.2470623404 0 0 0
97 1 2 0.0 -0.2632890046 -0.3199954927 0.1390392929 0 0 0
98 1 6 0.0 -0.5429978371 0.0137474639 -0.0874091089 0 0 0
99 1 2 0.0 -0.7699614167 0.3140138388 -0.4822511375 0 0 0
100 1 5 0.0 -0.8302127719 0.72465837 -0.8288006186 0 0 0
101 1 4 0.0 0.2906956375 -0.6877272725 -0.4863677025 0 0 0
102 1 2 0.0 0.3466709852 -0.479352206 -0.1270968914 0 0 0
103 1 6 0.0 0.301673919 -0.2567373216 0.2913455963 0 0 0
104 1 2 0.0 0.2138094455 0.0637556389 0.4821509719 0 0 0
105 1 5 0.0 0.1990247965 0.5705127716 0.4746887684 0 0 0
106 1 4 0.0 1.27800107 0.2314927727 -0.4759306908 -1 0 0
107 1 2 0.0 -1.3364378214 0.3396551907 -0.8776935339 0 0 0
108 1 6 0.0 -1.0249410868 0.4998190105 -1.2644486427 0 0 0
109 1 2 0.0 -0.7202685475 0.6486232877 1.303527236 0 0 -1
110 1 5 0.0 -0.3593659997 0.8093550205 0.9284369349 0 0 -1
111 1 4 0.0 0.9640209079 -0.684111774 -0.220933646 -1 0 0
112 1 2 0.0 1.2038160563 -0.5347044468 -0.4059072733 -1 0 0
113 1 6 0.0 -1.4334970713 -0.3397536576 -0.6599050164 0 0 0
114 1 2 0.0 -1.3241621256 -0.1800544858 -0.9984336495 0 0 0
115 1 5 0.0 -1.31064713 0.0010462651 -1.3717602491 0 0 0
116 1 4 0.0 -1.324318409 -0.7978261113 0.4074572623 -1 1 0
117 1 2 0.0 -0.9608533382 -0.9514424205 0.4494354725 -1 1 0
118 1 6 0.0 -0.6692416072 -1.3199731112 0.5060386658 -1 1 0
119 1 2 0.0 -0.4889943004 1.2122834921 0.4411037564 -1 0 0
120 1 5 0.0 -0.3564991653 0.8528082967 0.3737708032 -1 0 0
121 1 4 0.0 -0.6265159845 -0.5572153926 -0.4168465436 1 0 0
122 1 2 0.0 -0.1934992969 -0.4950766265 -0.6893834472 1 0 0
123 1 6 0.0 0.1588297039 -0.45800969 -1.1045672894 1 0 0
124 1 2 0.0 0.4355783463 -0.4002398551 1.2413083315 1 0 -1
125 1 5 0.0 0.7553355694 -0.27057302 0.8316890001 1 0 -1
126 1 4 0.0 -0.0830193087 0.8287551403 -0.2909050286 0 0 0
127 1 2 0.0 -0.2593780756 0.6513233185 -0.6140799522 0 0 0
128 1 6 0.0 -0.4786435068 0.3523412347 -0.9328460693 0 0 0
129 1 2 0.0 -0.7094805837 -0.0083383331 -1.1546632051 0 0 0
130 1 5 0.0 -0.8743299842 -0.3749210238 1.4241640568 0 0 -1
131 1 4 0.0 0.6030929089 -0.2582968771 -1.1747516394 0 0 0
132 1 2 0.0 0.6018589735 0.3144325018 -1.1724095345 0 0 0
133 1 6 0.0 0.6088261604 0.7915256619 -1.2369779348 0 0 0
134 1 2 0.0 0.6350582242 1.222443819 -1.3896943331 0 0 0
135 1 5 0.0 0.7932889462 -1.2489850521 1.3834834099 0 1 -1
136 1 4 0.0 -1.4076249599 -0.8528659344 -0.7739279866 1 1 0
137 1 2 0.0 -1.1579122543 -1.2118631601 -0.6455178261 1 1 0
138 1 6 0.0 -0.8803753257 1.2683601379 -0.5433989763 1 0 0
139 1 2 0.0 -0.6468984485 1.0094887018 -0.3109737039 1 0 0
140 1 5 0.0 -0.5425228477 0.5987744927 -0.1262927055 1 0 0
141 1 4 0.0 1.0515726805 -1.2023619413 0.0013932451 -1 0 0
142 1 2 0.0 0.9306926131 1.2026584148 -0.2429678887 -1 -1 0
143 1 6 0.0 0.737654984 0.7742286325 -0.3738362789 -1 -1 0
144 1 2 0.0 0.5620633364 0.3541384935 -0.6340478659 -1 -1 0
145 1 5 0.0 0.2827900648 0.0326342359 -0.8502374887 -1 -1 0
146 1 4 0.0 -0.3939746618 1.1733949184 1.413212657 0 -1 -1
147 1 2 0.0 -0.0152034266 1.3212932348 1.1336609125 0 -1 -1
148 1 6 0.0 0.3625368476 -1.2884595394 0.9399472475 0 0 -1
149 1 2 0.0 0.7526063919 -0.8845940828 0.8488067985 0 0 -1
150 1 5 0.0 1.1887614727 -0.6465575695 0.7946246266 0 0 -1
151 1 4 0.0 0.9520294666 1.0397273302 -0.8105023503 0 -1 1
152 1 2 0.0 0.6482657194 1.175193429 -0.8283376098 0 -1 1
153 1 6 0.0 0.2789528072 1.4225263596 -1.0264188051 0 -1 1
154 1 2 0.0 -0.1284526438 -1.3151122332 -1.2542891502 0 0 1
155 1 5 0.0 -0.5219511986 -1.110331893 -1.379753828 0 0 1
156 1 4 0.0 -1.2206324339 -1.0154436827 -1.2750105858 1 0 0
157 1 2 0.0 1.2698097229 -1.241822958 1.4192430973 0 0 -1
158 1 6 0.0 1.1722810268 1.3121472597 1.0174607038 0 -1 -1
159 1 2 0.0 1.1432870626 0.9391930103 0.6671621799 0 -1 -1
160 1 5 0.0 1.3536909819 0.5759117007 0.4053129256 0 -1 -1

Bonds

1 1 1 2
2 12 1 125
3 2 2 3
4 7 3 121
5 1 4 5
6 11 4 146
7 12 4 100
8 2 5 6
9 1 7 8
10 12 7 140
11 12 7 120
12 2 8 9
13 8 9 90
14 1 10 11
15 12 10 95
16 2 11 12
17 1 13 14
18 12 13 150
19 2 14 15
20 8 15 160
21 7 15 71
22 1 16 17
23 12 16 85
24 11 16 156
25 2 17 18
26 8 18 145
27 7 18 91
28 1 19 20
29 2 20 21
30 8 21 75
31 7 21 131
32 1 22 23
33 2 23 24
34 8 24 70
35 8 24 115
36 1 25 26
37 11 25 106
38 2 26 27
39 7 27 141
40 7 27 116
41 1 28 29
42 11 28 111
43 11 28 86
44 2 29 30
45 1 31 32
46 2 32 33
47 1 34 35
48 11 34 76
49 2 35 36
50 1 37 38
51 2 38 39
52 8 39 110
53 1 40 41
54 11 40 96
55 11 40 81
56 2 41 42
57 8 42 105
58 7 42 126
59 1 43 44
60 11 43 101
61 2 44 45
62 1 46 47
63 12 46 80
64 2 47 48
65 8 48 130
66 8 48 155
67 1 49 50
68 2 50 51
69 1 52 53
70 2 53 54
71 1 55 56
72 11 55 66
73 11 55 136
74 2 56 57
75 8 57 65
76 8 57 135
77 1 58 59
78 11 58 61
79 11 58 151
80 2 59 60
81 5 61 62
82 4 62 63
83 4 63 64
84 3 64 65
85 5 66 67
86 4 67 68
87 4 68 69
88 3 69 70
89 5 71 72
90 4 72 73
91 4 73 74
92 3 74 75
93 5 76 77
94 4 77 78
95 4 78 79
96 3 79 80
97 5 81 82
98 4 82 83
99 4 83 84
100 3 84 85
101 5 86 87
102 4 87 88
103 4 88 89
104 3 89 90
105 5 91 92
106 4 92 93
107 4 93 94
108 3 94 95
109 5 96 97
110 4 97 98
111 4 98 99
112 3 99 100
113 5 101 102
114 4 102 103
115 4 103 104
116 3 104 105
117 5 106 107
118 4 107 108
119 4 108 109
120 3 109 110
121 5 111 112
122 4 112 113
123 4 113 114
124 3 114 115
125 5 116 117
126 4 117 118
127 4 118 119
128 3 119 120
129 5 121 122
130 4 122 123
131 4 123 124
132 3 124 125
133 5 126 127
134 4 127 128
135 4 128 129
136 3 129 130
137 5 131 132
138 4 132 133
139 4 133 134
140 3 134 135
141 5 136 137
142 4 137 138
143 4 138 139
144 3 139 140
145 5 141 142
146 4 142 143
147 4 143 144
148 3 144 145
149 5 146 147
150 4 147 148
151 4 148 149
152 3 149 150
153 5 151 152
154 4 152 153
155 4 153 154
156 3 154 155
157 5 156 157
158 4 157 158
159 4 158 159
160 3 159 160
