# LAMMPS data file written by Ovito 3.0.0-dev349
160 atoms
160 bonds
6 atom types
12 bond types
-1.4347281455 1.4347281455 xlo xhi
-1.4347281455 1.4347281455 ylo yhi
-1.4347281455 1.4347281455 zlo zhi

Atoms # full

1 1 1 0.0 1.0153255463 -0.1558120847 0.4773570597 0 0 0
2 1 2 0.0 -1.3909797668 -0.3100768924 0.1929009408 1 0 0
3 1 3 0.0 -1.1875401735 -0.416549772 -0.2631065249 1 0 0
4 1 1 0.0 -0.6885680556 1.144495368 -1.3327296972 1 0 1
5 1 2 0.0 -1.0348818302 1.0117282867 1.1410093307 1 0 0
6 1 3 0.0 -1.2996103764 0.6540098786 0.8864770532 1 0 0
7 1 1 0.0 -0.2462173998 0.3011419773 0.2801171541 1 -1 0
8 1 2 0.0 -0.3762727082 0.0189132132 0.6988330483 1 -1 0
9 1 3 0.0 -0.435348779 -0.0549545251 1.2323653698 1 -1 0
10 1 1 0.0 1.2160699368 1.1279617548 0.0184124317 -1 -1 0
11 1 2 0.0 1.3028490543 1.3046969175 -0.3594761491 -1 -1 0
12 1 3 0.0 1.2764843702 1.2695883512 -0.8946892023 -1 -1 0
13 1 1 0.0 -1.1396342516 -0.4890773892 0.7107074857 0 0 0
14 1 2 0.0 -1.0154798031 -0.0534731857 0.4575955868 0 0 0
15 1 3 0.0 -1.1257835627 0.3781573176 0.2877363861 0 0 0
16 1 1 0.0 -0.8771544695 -0.846265316 -1.0245838165 -1 0 1
17 1 2 0.0 -0.5602796674 -0.5609172583 -1.1634049416 -1 0 1
18 1 3 0.0 -0.2950409055 -0.1439862251 -1.072977066 -1 0 1
19 1 1 0.0 1.0463120937 -1.159774065 -0.5869083405 -1 0 1
20 1 2 0.0 0.800283432 -1.0835491419 -0.9550464749 -1 0 1
21 1 3 0.0 0.5656608939 -0.7935791612 -1.2162148952 -1 0 1
22 1 1 0.0 0.9583053589 0.3850924671 -0.7146003246 0 0 1
23 1 2 0.0 1.1407042742 0.5741786361 -1.1527751684 0 0 1
24 1 3 0.0 1.297647953 0.4899432659 1.3401353359 0 0 0
25 1 1 0.0 1.2437283993 0.0301462878 -0.215715766 0 0 1
26 1 2 0.0 1.0112036467 -0.2949618399 -0.0578021444 0 0 1
27 1 3 0.0 1.013405323 -0.6899003983 0.2178381681 0 0 1
28 1 1 0.0 0.5554729104 -0.9168037772 0.029104406 0 0 0
29 1 2 0.0 0.484682411 -0.7329319715 0.433087945 0 0 0
30 1 3 0.0 0.1844103485 -0.7572616935 0.8138306737 0 0 0
31 1 1 0.0 -0.2998814285 -0.6130533814 1.2232333422 0 1 0
32 1 2 0.0 -0.0133023169 -0.2605099678 1.0206354856 0 1 0
33 1 3 0.0 0.1921884716 0.1399670988 1.0677088499 0 1 0
34 1 1 0.0 0.4551549852 0.6288606524 1.0887577534 0 -1 -1
35 1 2 0.0 0.7258591652 0.2167551219 1.2867600918 0 -1 -1
36 1 3 0.0 1.1622861624 0.0291706715 -1.2472572327 0 -1 0
37 1 1 0.0 0.9426880479 0.9334465861 1.2903510332 0 0 0
38 1 2 0.0 0.6856714487 1.1728435755 0.9841642976 0 0 0
39 1 3 0.0 0.4148133993 1.1163544655 0.6714985967 0 0 0
40 1 1 0.0 0.2594098747 -1.1900186539 0.4538208544 0 0 0
41 1 2 0.0 0.0985274762 1.4010916948 0.40464589 0 -1 0
42 1 3 0.0 0.109735243 1.0144950151 0.2525677979 0 -1 0
43 1 1 0.0 0.2083404213 -1.0538986921 -0.6701855063 0 0 0
44 1 2 0.0 -0.2057042867 -1.143697381 -0.7251949906 0 0 0
45 1 3 0.0 -0.5936931372 -1.338771224 -0.9713405371 0 0 0
46 1 1 0.0 -0.2767290771 -0.9499835968 0.5546301603 1 0 0
47 1 2 0.0 -0.711689949 -0.9160534739 0.8520475626 1 0 0
48 1 3 0.0 -0.8344951868 -0.793541491 1.2414211035 1 0 0
49 1 1 0.0 -0.8728333116 -0.5255621672 0.1424193084 0 1 0
50 1 2 0.0 -0.5989966989 -0.8056947589 0.0361375809 0 1 0
51 1 3 0.0 -0.2960428596 -0.8666271567 -0.2924173772 0 1 0
52 1 1 0.0 -1.3654644489 -0.4762170911 1.2076450586 0 1 0
53 1 2 0.0 1.2913787365 -0.0972247273 0.9637056589 -1 1 0
54 1 3 0.0 1.3309240341 0.2182330489 0.6607932448 -1 1 0
55 1 1 0.0 1.0483870506 -0.5197989941 -0.9573454857 -1 0 1
56 1 2 0.0 0.9830456972 -0.5013651848 -1.345531106 -1 0 1
57 1 3 0.0 0.966590941 -0.7094950676 1.2571582794 -1 0 0
58 1 1 0.0 1.4213383198 0.7770013809 -0.6008228064 -1 0 0
59 1 2 0.0 -1.32125175 0.8840390444 -0.9685714245 0 0 0
60 1 3 0.0 1.415553093 0.94764781 -1.4222437143 -1 0 0
61 1 4 0.0 -1.2247804403 0.8965193629 -0.1717039645 1 0 0
62 1 2 0.0 -1.110167861 1.0551792383 0.2061530203 1 0 0
63 1 6 0.0 -1.1002128124 1.276368618 0.5706005096 1 0 0
64 1 2 0.0 -1.1759746075 -1.2403082848 0.8330881 1 1 0
65 1 5 0.0 -1.3806495667 -0.960074544 1.0472698212 1 1 0
66 1 4 0.0 0.8153238893 -0.2029032856 -0.6293413639 -1 0 0
67 1 2 0.0 0.7181062102 0.1023705825 -0.2729716599 -1 0 0
68 1 6 0.0 0.7839984298 0.3042592406 0.1181970984 -1 0 0
69 1 2 0.0 0.8046125174 0.4915917814 0.552564919 -1 0 0
70 1 5 0.0 0.9869183898 0.5153243542 0.9235531688 -1 0 0
71 1 4 0.0 -0.8422436714 0.742743969 0.5618262291 0 -1 0
72 1 2 0.0 -0.6679417491 1.0261532068 0.7563538551 0 -1 0
73 1 6 0.0 -0.4262578189 -1.4040795565 0.9136463404 0 0 0
74 1 2 0.0 -0.1791576594 -1.1249850988 1.0774697065 0 0 0
75 1 5 0.0 0.194396168 -0.991953373 1.3521322012 0 0 0
76 1 4 0.0 0.0706924126 0.7985108495 1.3864108324 0 0 -1
77 1 2 0.0 -0.2321778238 0.9481906295 -1.112044692 0 0 0
78 1 6 0.0 -0.3228249252 1.156727314 -0.7083700895 0 0 0
79 1 2 0.0 -0.3495936692 1.4209893942 -0.2741691768 0 0 0
80 1 5 0.0 -0.2487508804 -1.2172561884 0.0989921317 0 1 0
81 1 4 0.0 0.7314346433 -1.3075883389 0.4790903032 -1 1 0
82 1 2 0.0 1.0995247364 -1.368619442 0.432685405 -1 1 0
83 1 6 0.0 -1.3746931553 -1.3301407099 0.1556970924 0 1 0
84 1 2 0.0 -0.9911195636 -1.1524789333 -0.1081614941 0 1 0
85 1 5 0.0 -0.8557802439 -0.9977273345 -0.5106434822 0 1 0
86 1 4 0.0 0.3612282574 -1.3488076925 -0.1594599336 0 1 0
87 1 2 0.0 0.1999502629 1.2217245102 -0.4542856216 0 0 0
88 1 6 0.0 0.1917420328 0.8957239985 -0.7496516109 0 0 0
89 1 2 0.0 0.0894121155 0.5816069245 -1.0247920752 0 0 0
90 1 5 0.0 -0.1258662641 0.2412704378 -1.3164792061 0 0 0
91 1 4 0.0 -0.3241182566 0.0245220326 -0.583158195 0 0 0
92 1 2 0.0 -0.1327806711 0.2449460328 -0.2447448075 0 0 0
93 1 6 0.0 0.1796791852 0.4532252848 -0.0409205593 0 0 0
94 1 2 0.0 0.4022300839 0.606977284 0.0124759469 0 0 0
95 1 5 0.0 0.7920752168 0.8117200136 0.0348179303 0 0 0
96 1 4 0.0 0.0087042227 -0.7399443984 0.2177329957 0 0 0
97 1 2 0.0 -0.2973932624 -0.3155605197 0.0372968093 0 0 0
98 1 6 0.0 -0.5979184508 0.0442858189 -0.1633798182 0 0 0
99 1 2 0.0 -0.7962813973 0.4661773443 -0.5305191278 0 0 0
100 1 5 0.0 -0.7353745103 0.8473864794 -0.8867004514 0 0 0
101 1 4 0.0 0.4115447998 -0.6265406013 -0.322476536 0 0 0
102 1 2 0.0 0.4832963347 -0.402584523 -0.027152637 0 0 0
103 1 6 0.0 0.4803847373 -0.1090060025 0.2822546363 0 0 0
104 1 2 0.0 0.3555438519 0.221228227 0.5032530427 0 0 0
105 1 5 0.0 0.2419204265 0.6182043552 0.5220975876 0 0 0
106 1 4 0.0 -1.4309362173 0.2008686066 -0.6626092792 0 0 0
107 1 2 0.0 -1.1451010704 0.4051512778 -0.9822294116 0 0 0
108 1 6 0.0 -0.8502639532 0.6288694739 -1.3881858587 0 0 0
109 1 2 0.0 -0.4722853005 0.7904216647 1.1640790701 0 0 -1
110 1 5 0.0 -0.0713745281 0.9762468934 0.8541641831 0 0 -1
111 1 4 0.0 0.9402737021 -0.74407655 -0.2691865563 -1 0 0
112 1 2 0.0 1.2286555767 -0.6383968592 -0.4997902215 -1 0 0
113 1 6 0.0 -1.3384742737 -0.3993723094 -0.8181834817 0 0 0
114 1 2 0.0 -1.1939957142 -0.1287993342 -1.1090275049 0 0 0
115 1 5 0.0 -1.20987463 0.1458538473 1.427967906 0 0 -1
116 1 4 0.0 -1.3782551289 -0.8245410323 0.3564954102 -1 1 0
117 1 2 0.0 -0.9822532535 -1.0101481676 0.4194301069 -1 1 0
118 1 6 0.0 -0.6099242568 -1.3088561296 0.4126426578 -1 1 0
119 1 2 0.0 -0.3405234814 1.1743626595 0.3782610297 -1 0 0
120 1 5 0.0 -0.2768372893 0.7668542266 0.4070515633 -1 0 0
121 1 4 0.0 -0.6952287555 -0.4831925929 -0.4325771928 1 0 0
122 1 2 0.0 -0.2477521002 -0.5007768273 -0.7221570611 1 0 0
123 1 6 0.0 0.0840638205 -0.5806757212 -1.1145125628 1 0 0
124 1 2 0.0 0.4442523122 -0.5296884179 1.2521528006 1 0 -1
125 1 5 0.0 0.7703336477 -0.3693144619 0.8665344119 1 0 -1
126 1 4 0.0 -0.0657856464 0.8797687292 -0.2346262336 0 0 0
127 1 2 0.0 -0.2432352602 0.6702450514 -0.6049019694 0 0 0
128 1 6 0.0 -0.4904709458 0.4227825999 -0.9692530036 0 0 0
129 1 2 0.0 -0.7152014971 0.0949201807 -1.2221899033 0 0 0
130 1 5 0.0 -0.8731859326 -0.3239374757 1.3991729021 0 0 -1
131 1 4 0.0 0.5270254016 -0.273131609 -1.1203253269 0 0 0
132 1 2 0.0 0.5516591072 0.245393455 -1.0868961811 0 0 0
133 1 6 0.0 0.5900840163 0.7474272251 -1.2314976454 0 0 0
134 1 2 0.0 0.5928183794 1.2054374218 -1.3571155071 0 0 0
135 1 5 0.0 0.7721714973 -1.1778709888 1.3561499119 0 1 -1
136 1 4 0.0 -1.4126844406 -0.9164168835 -0.8851975799 1 1 0
137 1 2 0.0 -1.1667991877 -1.2810412645 -0.7749477625 1 1 0
138 1 6 0.0 -0.8974649906 1.2663687468 -0.551717639 1 0 0
139 1 2 0.0 -0.6973947883 0.9260562062 -0.2911082804 1 0 0
140 1 5 0.0 -0.5252217054 0.6061773896 -0.0511494912 1 0 0
141 1 4 0.0 0.9013602734 -1.2635673285 -0.0763897374 -1 0 0
142 1 2 0.0 0.7507311106 1.1772484779 -0.2799224854 -1 -1 0
143 1 6 0.0 0.5651532412 0.7999941707 -0.4104278088 -1 -1 0
144 1 2 0.0 0.4352543354 0.4028317332 -0.5989888906 -1 -1 0
145 1 5 0.0 0.151262939 7.01412e-05 -0.8434527516 -1 -1 0
146 1 4 0.0 -0.1862781048 1.2379020452 1.3131921291 0 -1 -1
147 1 2 0.0 0.1872398108 1.3378931284 1.1081359386 0 -1 -1
148 1 6 0.0 0.4795164764 -1.2074708939 0.9464896321 0 0 -1
149 1 2 0.0 0.8007387519 -0.9024760723 0.8215498924 0 0 -1
150 1 5 0.0 1.2055438757 -0.6126170754 0.7833242416 0 0 -1
151 1 4 0.0 0.980979681 0.923392415 -0.712290585 0 -1 1
152 1 2 0.0 0.6392503977 1.131611824 -0.8671382666 0 -1 1
153 1 6 0.0 0.2551930845 1.3370609283 -0.9969907999 0 -1 1
154 1 2 0.0 -0.0728528947 -1.2838186026 -1.2176296711 0 0 1
155 1 5 0.0 -0.4687546492 -1.0759547949 -1.4077341557 0 0 1
156 1 4 0.0 -1.2198150158 -1.162009716 -1.2905000448 1 0 0
157 1 2 0.0 1.3241248131 -1.4328727722 1.299706459 0 0 -1
158 1 6 0.0 1.2138017416 1.2058879137 0.9031645656 0 -1 -1
159 1 2 0.0 1.1809210777 0.9040983915 0.5643352866 0 -1 -1
160 1 5 0.0 1.3568594456 0.6880115271 0.3814246953 0 -1 -1

Bonds

1 1 1 2
2 12 1 125
3 2 2 3
4 7 3 121
5 1 4 5
6 11 4 146
7 12 4 100
8 2 5 6
9 1 7 8
10 12 7 140
11 12 7 120
12 2 8 9
13 8 9 90
14 1 10 11
15 12 10 95
16 2 11 12
17 1 13 14
18 12 13 150
19 2 14 15
20 8 15 160
21 7 15 71
22 1 16 17
23 12 16 85
24 11 16 156
25 2 17 18
26 8 18 145
27 7 18 91
28 1 19 20
29 2 20 21
30 8 21 75
31 7 21 131
32 1 22 23
33 2 23 24
34 8 24 70
35 8 24 115
36 1 25 26
37 11 25 106
38 2 26 27
39 7 27 141
40 7 27 116
41 1 28 29
42 11 28 111
43 11 28 86
44 2 29 30
45 1 31 32
46 2 32 33
47 1 34 35
48 11 34 76
49 2 35 36
50 1 37 38
51 2 38 39
52 8 39 110
53 1 40 41
54 11 40 96
55 11 40 81
56 2 41 42
57 8 42 105
58 7 42 126
59 1 43 44
60 11 43 101
61 2 44 45
62 1 46 47
63 12 46 80
64 2 47 48
65 8 48 130
66 8 48 155
67 1 49 50
68 2 50 51
69 1 52 53
70 2 53 54
71 1 55 56
72 11 55 66
73 11 55 136
74 2 56 57
75 8 57 65
76 8 57 135
77 1 58 59
78 11 58 61
79 11 58 151
80 2 59 60
81 5 61 62
82 4 62 63
83 4 63 64
84 3 64 65
85 5 66 67
86 4 67 68
87 4 68 69
88 3 69 70
89 5 71 72
90 4 72 73
91 4 73 74
92 3 74 75
93 5 76 77
94 4 77 78
95 4 78 79
96 3 79 80
97 5 81 82
98 4 82 83
99 4 83 84
100 3 84 85
101 5 86 87
102 4 87 88
103 4 88 89
104 3 89 90
105 5 91 92
106 4 92 93
107 4 93 94
108 3 94 95
109 5 96 97
110 4 97 98
111 4 98 99
112 3 99 100
113 5 101 102
114 4 102 103
115 4 103 104
116 3 104 105
117 5 106 107
118 4 107 108
119 4 108 109
120 3 109 110
121 5 111 112
122 4 112 113
123 4 113 114
124 3 114 115
125 5 116 117
126 4 117 118
127 4 118 119
128 3 119 120
129 5 121 122
130 4 122 123
131 4 123 124
132 3 124 125
133 5 126 127
134 4 127 128
135 4 128 129
136 3 129 130
137 5 131 132
138 4 132 133
139 4 133 134
140 3 134 135
141 5 136 137
142 4 137 138
143 4 138 139
144 3 139 140
145 5 141 142
146 4 142 143
147 4 143 144
148 3 144 145
149 5 146 147
150 4 147 148
151 4 148 149
152 3 149 150
153 5 151 152
154 4 152 153
155 4 153 154
156 3 154 155
157 5 156 157
158 4 157 158
159 4 158 159
160 3 159 160
