# LAMMPS data file written by Ovito 3.0.0-dev349
160 atoms
160 bonds
6 atom types
12 bond types
-1.43323946 1.43323946 xlo xhi
-1.43323946 1.43323946 ylo yhi
-1.43323946 1.43323946 zlo zhi

Atoms # full

1 1 1 0.0 1.3256969452 0.0058150217 0.5894767046 0 0 0
2 1 2 0.0 -1.2545742989 -0.3316692114 0.3303781748 1 0 0
3 1 3 0.0 -1.1409373283 -0.6122974157 -0.1436211318 1 0 0
4 1 1 0.0 -0.6855211854 1.209666729 -1.3608781099 1 0 1
5 1 2 0.0 -1.028195262 1.1350238323 1.1566394567 1 0 0
6 1 3 0.0 -1.2514613867 0.8292050362 0.8364387751 1 0 0
7 1 1 0.0 -0.2297278047 0.1585059017 0.242397815 1 -1 0
8 1 2 0.0 -0.3330604732 -0.0620480143 0.6153423786 1 -1 0
9 1 3 0.0 -0.2361938357 -0.148305878 1.074480176 1 -1 0
10 1 1 0.0 1.141576767 1.1104998589 0.1455960721 -1 -1 0
11 1 2 0.0 1.2218117714 1.3312360048 -0.2643782794 -1 -1 0
12 1 3 0.0 1.1034576893 -1.4076057673 -0.7814948559 -1 0 0
13 1 1 0.0 -0.9842643738 -0.4074148238 0.7587543726 0 0 0
14 1 2 0.0 -0.878428936 0.001550959 0.5222672224 0 0 0
15 1 3 0.0 -1.0203291178 0.4411072433 0.3774284422 0 0 0
16 1 1 0.0 -0.9085066319 -0.8397549987 -0.9973997474 -1 0 1
17 1 2 0.0 -0.499381423 -0.6083297729 -1.2111598253 -1 0 1
18 1 3 0.0 -0.2771811485 -0.2230437994 -1.2067205906 -1 0 1
19 1 1 0.0 1.2783751488 -0.9763534069 -0.3116692007 -1 0 1
20 1 2 0.0 0.9791451693 -0.9203209281 -0.7468332648 -1 0 1
21 1 3 0.0 0.6252102256 -0.6774243712 -1.0437499285 -1 0 1
22 1 1 0.0 0.8242408633 0.4810161591 -0.703387022 0 0 1
23 1 2 0.0 1.1083074808 0.541029036 -1.0986610651 0 0 1
24 1 3 0.0 1.3713650703 0.3983814418 1.4025410414 0 0 0
25 1 1 0.0 1.3308202028 0.0850553811 -0.1102589667 0 0 1
26 1 2 0.0 1.037203908 -0.308719337 0.0304071046 0 0 1
27 1 3 0.0 1.0508847237 -0.7130274773 0.1247939765 0 0 1
28 1 1 0.0 0.477240622 -0.8093831539 -0.0463823974 0 0 0
29 1 2 0.0 0.5287065506 -0.6465038061 0.3783874512 0 0 0
30 1 3 0.0 0.5550119281 -0.7451168895 0.7479512095 0 0 0
31 1 1 0.0 -0.4406628013 -0.5583387613 0.7447191477 0 1 0
32 1 2 0.0 0.0185572188 -0.4670095742 0.6962449551 0 1 0
33 1 3 0.0 0.388307184 -0.2187922299 0.8224908113 0 1 0
34 1 1 0.0 0.2419407368 0.4214578271 1.0455238819 0 -1 -1
35 1 2 0.0 0.6032953262 0.2934082448 1.1207805872 0 -1 -1
36 1 3 0.0 0.9529280663 0.0808388218 -1.4268211126 0 -1 0
37 1 1 0.0 0.9731479883 0.8010749817 1.3004740477 0 0 0
38 1 2 0.0 0.680693686 0.8404183388 0.945109129 0 0 0
39 1 3 0.0 0.4183942974 1.1135131121 0.6932666302 0 0 0
40 1 1 0.0 0.1814643741 -1.0304925442 0.4455684423 0 0 0
41 1 2 0.0 0.0371516198 1.3993520737 0.3820761144 0 -1 0
42 1 3 0.0 0.1271428168 1.0807436705 0.2150681466 0 -1 0
43 1 1 0.0 0.1078050956 -1.0148590803 -0.8045781851 0 0 0
44 1 2 0.0 -0.4579909444 -1.0747932196 -0.7828255892 0 0 0
45 1 3 0.0 -0.7717190981 -1.3460911512 -0.8851605058 0 0 0
46 1 1 0.0 -0.3991098404 -0.9872512221 0.4153617918 1 0 0
47 1 2 0.0 -0.7013708353 -1.0305885077 0.7531172037 1 0 0
48 1 3 0.0 -0.8075284958 -0.8516085744 1.1745705605 1 0 0
49 1 1 0.0 -0.783313632 -0.5587238073 0.2762749791 0 1 0
50 1 2 0.0 -0.6485232711 -0.8280541301 0.019319009 0 1 0
51 1 3 0.0 -0.2777561247 -0.9481856227 -0.2944085002 0 1 0
52 1 1 0.0 -1.2158378363 -0.5713090897 -1.3375253677 0 1 1
53 1 2 0.0 -1.3124837875 -0.2714654803 1.1808980703 0 1 0
54 1 3 0.0 -1.2167384624 0.2108879387 0.9543892741 0 1 0
55 1 1 0.0 1.2690259218 -0.3574925363 -1.0259501934 -1 0 1
56 1 2 0.0 1.0152330399 -0.4995125234 -1.3320844173 -1 0 1
57 1 3 0.0 1.0132683516 -0.6974791288 1.3240283728 -1 0 0
58 1 1 0.0 1.3526747227 0.8382917643 -0.5768172145 -1 0 0
59 1 2 0.0 -1.3436176777 0.9298238754 -0.9794434309 0 0 0
60 1 3 0.0 -1.4115687609 0.895742178 -1.420764327 0 0 0
61 1 4 0.0 -1.2747293711 0.9644627571 -0.1040989608 1 0 0
62 1 2 0.0 -1.1519438028 1.0662206411 0.3642011881 1 0 0
63 1 6 0.0 -1.1470246315 1.3508863449 0.6636719108 1 0 0
64 1 2 0.0 -1.2316895723 -1.2016735077 0.9272120595 1 1 0
65 1 5 0.0 1.4146084785 -0.8986525536 1.1361490488 0 1 0
66 1 4 0.0 1.025600791 -0.0741977245 -0.6433436871 -1 0 0
67 1 2 0.0 0.8379645944 0.1810866892 -0.2604193687 -1 0 0
68 1 6 0.0 0.8362162113 0.300761044 0.0911086947 -1 0 0
69 1 2 0.0 0.8725346327 0.3682871461 0.572429359 -1 0 0
70 1 5 0.0 1.0753633976 0.383870095 0.9570706487 -1 0 0
71 1 4 0.0 -0.7399822474 0.7721115947 0.6124162078 0 -1 0
72 1 2 0.0 -0.626876235 1.15804708 0.7689839005 0 -1 0
73 1 6 0.0 -0.2874775827 -1.3192093372 0.9139987826 0 0 0
74 1 2 0.0 0.0353385434 -1.1029965878 1.2145555019 0 0 0
75 1 5 0.0 0.3487580419 -0.9133364558 -1.3645241261 0 0 1
76 1 4 0.0 -0.0376358144 0.7295132875 1.3441426754 0 0 -1
77 1 2 0.0 -0.2884489894 0.9204545021 -1.132682085 0 0 0
78 1 6 0.0 -0.3801812828 1.1434265375 -0.7953669429 0 0 0
79 1 2 0.0 -0.3620364666 1.3399710655 -0.3514546156 0 0 0
80 1 5 0.0 -0.3279949129 -1.3213236332 0.0374784917 0 1 0
81 1 4 0.0 0.6811457872 -1.1970994473 0.4496889114 -1 1 0
82 1 2 0.0 1.0795937777 -1.2834820747 0.3762835562 -1 1 0
83 1 6 0.0 -1.374140501 -1.3697170019 0.1487765461 0 1 0
84 1 2 0.0 -1.0961924791 -1.2127662897 -0.1283740103 0 1 0
85 1 5 0.0 -0.8856058717 -1.0242065191 -0.4445136786 0 1 0
86 1 4 0.0 0.2135964483 -1.2780898809 -0.1700784415 0 1 0
87 1 2 0.0 0.1530612707 1.2306761742 -0.4337676764 0 0 0
88 1 6 0.0 0.1009307504 0.8450053334 -0.7166655064 0 0 0
89 1 2 0.0 0.0044484478 0.5508682728 -1.0460371971 0 0 0
90 1 5 0.0 -0.1400750875 0.2175049931 1.4272574186 0 0 -1
91 1 4 0.0 -0.4798821807 -0.1039644703 -0.7700473666 0 0 0
92 1 2 0.0 -0.3513145149 0.1378171593 -0.4505228996 0 0 0
93 1 6 0.0 -0.0158064924 0.3457691371 -0.184927687 0 0 0
94 1 2 0.0 0.3399477899 0.6048764586 0.0360501707 0 0 0
95 1 5 0.0 0.7104518414 0.8932448626 0.2102434933 0 0 0
96 1 4 0.0 -0.0553350933 -0.6532222033 0.1959462464 0 0 0
97 1 2 0.0 -0.3562602699 -0.3463611305 -0.0614185259 0 0 0
98 1 6 0.0 -0.7411764264 -0.0612104572 -0.2801333666 0 0 0
99 1 2 0.0 -0.8410158753 0.3940061033 -0.5960831046 0 0 0
100 1 5 0.0 -0.8302239776 0.9101270437 -0.9317883849 0 0 0
101 1 4 0.0 0.2915456295 -0.613019228 -0.5585442781 0 0 0
102 1 2 0.0 0.3059266508 -0.2958424091 -0.1726462245 0 0 0
103 1 6 0.0 0.3289719522 -0.0388451405 0.1964445561 0 0 0
104 1 2 0.0 0.3129786253 0.3349442184 0.4882885814 0 0 0
105 1 5 0.0 0.3029373586 0.6415654421 0.5092464685 0 0 0
106 1 4 0.0 -1.3938430548 0.2153516114 -0.6658788919 0 0 0
107 1 2 0.0 -1.1629918814 0.4462650716 -1.0650256872 0 0 0
108 1 6 0.0 -0.8684433699 0.6043933034 -1.4274722338 0 0 0
109 1 2 0.0 -0.4747000039 0.7794851065 1.0805162191 0 0 -1
110 1 5 0.0 -0.0611995645 0.9956781864 0.8253288269 0 0 -1
111 1 4 0.0 0.8915390968 -0.6356434226 -0.3185495734 -1 0 0
112 1 2 0.0 1.2414864302 -0.518856287 -0.4885951877 -1 0 0
113 1 6 0.0 -1.1918410063 -0.3126015067 -0.6490482688 0 0 0
114 1 2 0.0 -1.0679075718 -0.1949156374 -0.8859767318 0 0 0
115 1 5 0.0 -1.2315357924 -0.0135277631 -1.2576202154 0 0 0
116 1 4 0.0 -1.3810975552 -0.9056010842 0.343552798 -1 1 0
117 1 2 0.0 -1.0301127434 -1.0690094233 0.38977319 -1 1 0
118 1 6 0.0 -0.7312166095 -1.3857258558 0.3764791787 -1 1 0
119 1 2 0.0 -0.3908841014 1.0726613998 0.3073584139 -1 0 0
120 1 5 0.0 -0.194491297 0.6535603404 0.2967714071 -1 0 0
121 1 4 0.0 -0.6458277702 -0.5490845442 -0.4438635409 1 0 0
122 1 2 0.0 -0.1556802541 -0.5453265309 -0.7986149192 1 0 0
123 1 6 0.0 0.1917590946 -0.4632220566 -1.1427526474 1 0 0
124 1 2 0.0 0.5791751146 -0.3900436461 1.2672561407 1 0 -1
125 1 5 0.0 0.9138818979 -0.1605990529 0.9015129209 1 0 -1
126 1 4 0.0 -0.1285550445 0.8809865117 -0.2006021887 0 0 0
127 1 2 0.0 -0.3568913341 0.6456434727 -0.5830910206 0 0 0
128 1 6 0.0 -0.549025476 0.4068475366 -0.9787698984 0 0 0
129 1 2 0.0 -0.6906945109 0.0748180225 -1.3209520578 0 0 0
130 1 5 0.0 -0.7663593292 -0.3718158007 1.3033937216 0 0 -1
131 1 4 0.0 0.6435857415 -0.1626937091 -1.0960255861 0 0 0
132 1 2 0.0 0.5562532544 0.3074397147 -1.1272683144 0 0 0
133 1 6 0.0 0.5893030763 0.8124213815 -1.1933256388 0 0 0
134 1 2 0.0 0.6774104834 1.2383117676 -1.2902665138 0 0 0
135 1 5 0.0 0.8233847022 -1.1879359484 1.4213825464 0 1 -1
136 1 4 0.0 -1.3786705732 -0.81709975 -0.8118006587 1 1 0
137 1 2 0.0 -1.267849803 -1.2685476542 -0.6537722349 1 1 0
138 1 6 0.0 -1.0771872997 1.2323662043 -0.5040471554 1 0 0
139 1 2 0.0 -0.7894724011 0.8197076321 -0.3049140871 1 0 0
140 1 5 0.0 -0.5594142079 0.4502117634 -0.0662744194 1 0 0
141 1 4 0.0 0.8578391671 -1.1534548998 -0.1011384502 -1 0 0
142 1 2 0.0 0.6634374261 1.3141497374 -0.1767122 -1 -1 0
143 1 6 0.0 0.5099326968 0.8353767991 -0.3544998467 -1 -1 0
144 1 2 0.0 0.3300916255 0.3752055764 -0.6342023611 -1 -1 0
145 1 5 0.0 0.1361741871 -8.224736e-04 -0.9700128436 -1 -1 0
146 1 4 0.0 -0.1830904335 1.2247935534 1.3225685358 0 -1 -1
147 1 2 0.0 0.2247701138 1.2663726807 1.1555827856 0 -1 -1
148 1 6 0.0 0.6399743557 -1.346082449 0.9651766419 0 0 -1
149 1 2 0.0 1.0270414352 -1.0461291075 0.8340784311 0 0 -1
150 1 5 0.0 1.4078937769 -0.6045409441 0.7404778004 0 0 -1
151 1 4 0.0 0.8780248761 1.0210444927 -0.630563736 0 -1 1
152 1 2 0.0 0.526334703 1.1788229942 -0.7772935033 0 -1 1
153 1 6 0.0 0.104382813 1.3751943111 -0.9447864294 0 -1 1
154 1 2 0.0 -0.2449068576 -1.3553180695 -1.1411727667 0 0 1
155 1 5 0.0 -0.5480870605 -1.1626669168 -1.3601369858 0 0 1
156 1 4 0.0 -1.1952383518 -1.1623775959 -1.3026043177 1 0 0
157 1 2 0.0 1.2411174774 -1.3952773809 1.2394732237 0 0 -1
158 1 6 0.0 1.0764814615 1.2456749678 0.9188113213 0 -1 -1
159 1 2 0.0 1.0951929092 0.880081892 0.630510211 0 -1 -1
160 1 5 0.0 1.4056655169 0.5885202885 0.40669626 0 -1 -1

Bonds

1 1 1 2
2 12 1 125
3 2 2 3
4 7 3 121
5 1 4 5
6 11 4 146
7 12 4 100
8 2 5 6
9 1 7 8
10 12 7 140
11 12 7 120
12 2 8 9
13 8 9 90
14 1 10 11
15 12 10 95
16 2 11 12
17 1 13 14
18 12 13 150
19 2 14 15
20 8 15 160
21 7 15 71
22 1 16 17
23 12 16 85
24 11 16 156
25 2 17 18
26 8 18 145
27 7 18 91
28 1 19 20
29 2 20 21
30 8 21 75
31 7 21 131
32 1 22 23
33 2 23 24
34 8 24 70
35 8 24 115
36 1 25 26
37 11 25 106
38 2 26 27
39 7 27 141
40 7 27 116
41 1 28 29
42 11 28 111
43 11 28 86
44 2 29 30
45 1 31 32
46 2 32 33
47 1 34 35
48 11 34 76
49 2 35 36
50 1 37 38
51 2 38 39
52 8 39 110
53 1 40 41
54 11 40 96
55 11 40 81
56 2 41 42
57 8 42 105
58 7 42 126
59 1 43 44
60 11 43 101
61 2 44 45
62 1 46 47
63 12 46 80
64 2 47 48
65 8 48 130
66 8 48 155
67 1 49 50
68 2 50 51
69 1 52 53
70 2 53 54
71 1 55 56
72 11 55 66
73 11 55 136
74 2 56 57
75 8 57 65
76 8 57 135
77 1 58 59
78 11 58 61
79 11 58 151
80 2 59 60
81 5 61 62
82 4 62 63
83 4 63 64
84 3 64 65
85 5 66 67
86 4 67 68
87 4 68 69
88 3 69 70
89 5 71 72
90 4 72 73
91 4 73 74
92 3 74 75
93 5 76 77
94 4 77 78
95 4 78 79
96 3 79 80
97 5 81 82
98 4 82 83
99 4 83 84
100 3 84 85
101 5 86 87
102 4 87 88
103 4 88 89
104 3 89 90
105 5 91 92
106 4 92 93
107 4 93 94
108 3 94 95
109 5 96 97
110 4 97 98
111 4 98 99
112 3 99 100
113 5 101 102
114 4 102 103
115 4 103 104
116 3 104 105
117 5 106 107
118 4 107 108
119 4 108 109
120 3 109 110
121 5 111 112
122 4 112 113
123 4 113 114
124 3 114 115
125 5 116 117
126 4 117 118
127 4 118 119
128 3 119 120
129 5 121 122
130 4 122 123
131 4 123 124
132 3 124 125
133 5 126 127
134 4 127 128
135 4 128 129
136 3 129 130
137 5 131 132
138 4 132 133
139 4 133 134
140 3 134 135
141 5 136 137
142 4 137 138
143 4 138 139
144 3 139 140
145 5 141 142
146 4 142 143
147 4 143 144
148 3 144 145
149 5 146 147
150 4 147 148
151 4 148 149
152 3 149 150
153 5 151 152
154 4 152 153
155 4 153 154
156 3 154 155
157 5 156 157
158 4 157 158
159 4 158 159
160 3 159 160
