# LAMMPS data file written by Ovito 3.0.0-dev349
160 atoms
160 bonds
6 atom types
12 bond types
-1.4103963375 1.4103963375 xlo xhi
-1.4103963375 1.4103963375 ylo yhi
-1.4103963375 1.4103963375 zlo zhi

Atoms # full

1 1 1 0.0 1.3098208904 -0.2481047362 0.498320967 0 0 0
2 1 2 0.0 -1.4015097618 -0.3712792099 0.0308655649 1 0 0
3 1 3 0.0 -1.0906502008 -0.7015958428 -0.2414783984 1 0 0
4 1 1 0.0 -0.8127607703 1.0862596035 -1.3398985863 1 0 1
5 1 2 0.0 -1.1075720787 0.9828009009 1.1883460283 1 0 0
6 1 3 0.0 -1.2047353983 0.6824206114 0.8362377286 1 0 0
7 1 1 0.0 -0.3447465599 0.3309597969 0.3497405052 1 -1 0
8 1 2 0.0 -0.3313933909 0.063714236 0.7664960027 1 -1 0
9 1 3 0.0 -0.1248612106 -0.0494358502 1.1591479778 1 -1 0
10 1 1 0.0 1.1758573055 1.176894784 -0.0015353244 -1 -1 0
11 1 2 0.0 1.2411795855 1.1793955564 -0.4724506736 -1 -1 0
12 1 3 0.0 1.0664433241 1.3763127327 -0.9144079685 -1 -1 0
13 1 1 0.0 -1.0934114456 -0.5286427736 0.6330552101 0 0 0
14 1 2 0.0 -0.9139424562 -0.1276510656 0.4280112088 0 0 0
15 1 3 0.0 -1.0491483212 0.3366298676 0.2954489589 0 0 0
16 1 1 0.0 -0.7574980259 -0.8701536059 -1.0007631779 -1 0 1
17 1 2 0.0 -0.6393922567 -0.5026943088 -1.0883604288 -1 0 1
18 1 3 0.0 -0.5597545505 -0.1269762367 -0.9307644367 -1 0 1
19 1 1 0.0 1.1784194708 -1.1223779917 -0.392073065 -1 0 1
20 1 2 0.0 0.8035187721 -0.9576550722 -0.6516647339 -1 0 1
21 1 3 0.0 0.6163176894 -0.6321828961 -1.0382796526 -1 0 1
22 1 1 0.0 0.8352646828 0.3593893647 -0.6669602394 0 0 1
23 1 2 0.0 0.9716563225 0.5436438918 -1.1215980053 0 0 1
24 1 3 0.0 1.2551938295 0.5257369876 1.182606101 0 0 0
25 1 1 0.0 1.1261557341 0.088850908 -0.026490014 0 0 1
26 1 2 0.0 0.9297783971 -0.286477387 0.1760886014 0 0 1
27 1 3 0.0 0.9781574011 -0.7452321053 0.2638092935 0 0 1
28 1 1 0.0 0.4826444983 -0.747133553 0.1024304181 0 0 0
29 1 2 0.0 0.5390923619 -0.6365333796 0.472779125 0 0 0
30 1 3 0.0 0.509589076 -0.7192624211 0.9091510773 0 0 0
31 1 1 0.0 -0.2242334336 -0.5214967132 1.3188755512 0 1 0
32 1 2 0.0 0.0579012074 -0.4636288583 0.933490932 0 1 0
33 1 3 0.0 0.3538607359 -0.2175768018 0.7537583709 0 1 0
34 1 1 0.0 0.4614379108 0.2048918158 1.0626103878 0 -1 -1
35 1 2 0.0 0.8793212771 0.0868096203 1.2555330992 0 -1 -1
36 1 3 0.0 1.1444174051 0.0089151617 -1.1124372482 0 -1 0
37 1 1 0.0 0.968719244 0.9803569913 -1.3716205359 0 0 1
38 1 2 0.0 0.7215142846 0.9661770463 1.0196086168 0 0 0
39 1 3 0.0 0.3382942677 1.0112035275 0.7668572664 0 0 0
40 1 1 0.0 0.236474365 -1.056753993 0.5887741446 0 0 0
41 1 2 0.0 0.1113292724 -1.378508091 0.4458518922 0 0 0
42 1 3 0.0 0.2252868265 1.047586441 0.2347283065 0 -1 0
43 1 1 0.0 0.2312005758 -0.9021997452 -0.8486557007 0 0 0
44 1 2 0.0 -0.3310626745 -1.0969245434 -0.8312628269 0 0 0
45 1 3 0.0 -0.7069132328 -1.3563535213 -0.97893399 0 0 0
46 1 1 0.0 -0.1972904205 -1.0029015541 0.2472031415 1 0 0
47 1 2 0.0 -0.4828056991 -0.7522654533 0.5159537196 1 0 0
48 1 3 0.0 -0.6412242055 -0.7252257466 0.912560463 1 0 0
49 1 1 0.0 -0.7793728113 -0.5299035311 0.122337319 0 1 0
50 1 2 0.0 -0.4372184873 -0.6159754992 -0.0129511608 0 1 0
51 1 3 0.0 -0.186652258 -0.8185352683 -0.3634730279 0 1 0
52 1 1 0.0 -0.9972948432 -0.6434277296 1.3473242521 0 1 0
53 1 2 0.0 -1.2827193737 -0.3028926253 1.037548542 0 1 0
54 1 3 0.0 -1.3104245663 0.134454757 0.7813634872 0 1 0
55 1 1 0.0 1.1349771023 -0.5079399943 -0.909131825 -1 0 1
56 1 2 0.0 1.1498633623 -0.4853484035 -1.2325745821 -1 0 1
57 1 3 0.0 1.1676439047 -0.6715893149 1.2727328539 -1 0 0
58 1 1 0.0 1.2839175463 0.724656105 -0.6407162547 -1 0 0
59 1 2 0.0 -1.3203930855 0.8947573304 -1.0088846684 0 0 0
60 1 3 0.0 -1.2516760826 1.2621825933 -1.1797430515 0 0 0
61 1 4 0.0 -1.2967834473 0.7634193897 -0.177180782 1 0 0
62 1 2 0.0 -1.1723566055 0.9787165523 0.1723806411 1 0 0
63 1 6 0.0 -1.0608717203 1.1783665419 0.4816932678 1 0 0
64 1 2 0.0 -1.0286513567 -1.3478084803 0.756705761 1 1 0
65 1 5 0.0 -1.193823576 -0.9657130837 1.0288145542 1 1 0
66 1 4 0.0 0.8001651764 -0.225775823 -0.5964647532 -1 0 0
67 1 2 0.0 0.6328858733 -0.0649389103 -0.3084150553 -1 0 0
68 1 6 0.0 0.5888918042 0.1017250717 0.0650934279 -1 0 0
69 1 2 0.0 0.7319894433 0.376180917 0.5170530677 -1 0 0
70 1 5 0.0 0.8975178599 0.4284079373 0.8175429702 -1 0 0
71 1 4 0.0 -0.7160825133 0.7254703641 0.5278181434 0 -1 0
72 1 2 0.0 -0.5534428954 1.1273311377 0.6940059066 0 -1 0
73 1 6 0.0 -0.25745067 -1.2493089437 0.842063725 0 0 0
74 1 2 0.0 9.996399e-04 -0.9793584943 1.0454847813 0 0 0
75 1 5 0.0 0.2902008593 -0.8470107913 1.3734403849 0 0 0
76 1 4 0.0 0.2114187032 0.615686357 1.2526439428 0 0 -1
77 1 2 0.0 -0.056204658 0.8447324038 -1.3581242561 0 0 0
78 1 6 0.0 -0.3172159791 1.032510519 -1.0537804365 0 0 0
79 1 2 0.0 -0.3989070654 1.239256382 -0.634945035 0 0 0
80 1 5 0.0 -0.3339109123 -1.3468558788 -0.1952570677 0 1 0
81 1 4 0.0 0.708722651 -1.1946803331 0.4498878121 -1 1 0
82 1 2 0.0 1.0884416103 -1.2548936605 0.3944209516 -1 1 0
83 1 6 0.0 -1.3165512085 -1.3056063652 0.1748003364 0 1 0
84 1 2 0.0 -0.9831167459 -1.2686573267 -0.1506778896 0 1 0
85 1 5 0.0 -0.7789233327 -1.10197258 -0.5066783428 0 1 0
86 1 4 0.0 0.211847052 -1.1767103672 -0.0907394737 0 1 0
87 1 2 0.0 0.0993606821 1.2285094261 -0.3870109916 0 0 0
88 1 6 0.0 0.0173140895 0.9658142328 -0.6001803279 0 0 0
89 1 2 0.0 -0.033129137 0.630223453 -0.9264177084 0 0 0
90 1 5 0.0 -0.0917092413 0.3383464217 -1.3018789291 0 0 0
91 1 4 0.0 -0.433088094 -0.0612207428 -0.4488256872 0 0 0
92 1 2 0.0 -0.1438636333 0.1309960037 -0.1208126545 0 0 0
93 1 6 0.0 0.1498329341 0.4008796513 0.0041193366 0 0 0
94 1 2 0.0 0.4939277172 0.6374313831 0.0736758783 0 0 0
95 1 5 0.0 0.9042616487 0.8175638914 0.1102416441 0 0 0
96 1 4 0.0 -0.0264286064 -0.5583364367 0.4334829748 0 0 0
97 1 2 0.0 -0.3806652725 -0.2152885944 0.2365146726 0 0 0
98 1 6 0.0 -0.6962451339 0.1186370924 -0.0611970648 0 0 0
99 1 2 0.0 -0.8323844075 0.4456471801 -0.4798394144 0 0 0
100 1 5 0.0 -0.7961223125 0.8032228351 -0.8622139096 0 0 0
101 1 4 0.0 0.2909208536 -0.5673633814 -0.4727483094 0 0 0
102 1 2 0.0 0.2483451068 -0.3693712354 -0.1089506 0 0 0
103 1 6 0.0 0.1791122258 -0.118573375 0.2671065927 0 0 0
104 1 2 0.0 0.1714626998 0.2129005641 0.516223073 0 0 0
105 1 5 0.0 0.1769464761 0.5656457543 0.5741089582 0 0 0
106 1 4 0.0 1.3580850363 0.2420137972 -0.5460787416 -1 0 0
107 1 2 0.0 -1.2110161781 0.358327359 -0.9546843767 0 0 0
108 1 6 0.0 -0.9413537979 0.5396721363 -1.3474349976 0 0 0
109 1 2 0.0 -0.5685563684 0.7589178681 1.159645319 0 0 -1
110 1 5 0.0 -0.1495916247 0.8758314848 0.9401263595 0 0 -1
111 1 4 0.0 0.9355498552 -0.6134713888 -0.2252432108 -1 0 0
112 1 2 0.0 1.2336199284 -0.495747894 -0.4109536707 -1 0 0
113 1 6 0.0 -1.228208065 -0.3830971718 -0.7511809468 0 0 0
114 1 2 0.0 -1.1929440498 -0.2360931486 -1.0661128759 0 0 0
115 1 5 0.0 -1.2584580183 0.0864389613 1.3983734846 0 0 -1
116 1 4 0.0 -1.3277515173 -0.8082637191 0.2477492392 -1 1 0
117 1 2 0.0 -0.9066156149 -1.0462813377 0.3248041272 -1 1 0
118 1 6 0.0 -0.6655443311 -1.2946853638 0.278483659 -1 1 0
119 1 2 0.0 -0.3376927674 1.2318331003 0.2698765993 -1 0 0
120 1 5 0.0 -0.2026183009 0.796993196 0.3675477803 -1 0 0
121 1 4 0.0 -0.645170033 -0.5423175693 -0.5008482337 1 0 0
122 1 2 0.0 -0.1837266684 -0.4894228578 -0.788995266 1 0 0
123 1 6 0.0 0.1547366381 -0.375941664 -1.185449481 1 0 0
124 1 2 0.0 0.5083032846 -0.3206994832 1.2356622219 1 0 -1
125 1 5 0.0 0.8762413263 -0.3668525815 0.8297511935 1 0 -1
126 1 4 0.0 -0.1357174516 0.8596437573 -0.1330302954 0 0 0
127 1 2 0.0 -0.3507817686 0.6180925965 -0.4914831221 0 0 0
128 1 6 0.0 -0.4913097918 0.390794605 -0.9537730813 0 0 0
129 1 2 0.0 -0.588342011 0.1719948202 -1.3862464428 0 0 0
130 1 5 0.0 -0.6066365838 -0.2203015685 1.1663835049 0 0 -1
131 1 4 0.0 0.5761498213 -0.1176325828 -1.0612392426 0 0 0
132 1 2 0.0 0.4980327785 0.3808906078 -1.1428574324 0 0 0
133 1 6 0.0 0.4974999726 0.8280003667 -1.2034145594 0 0 0
134 1 2 0.0 0.5925822258 1.2905035019 -1.3556684256 0 0 0
135 1 5 0.0 0.8047075868 -1.0644619465 1.3953707218 0 1 -1
136 1 4 0.0 1.3762390614 -0.9166096449 -0.787397325 0 1 0
137 1 2 0.0 -1.2318348885 -1.3336346149 -0.6897699237 1 1 0
138 1 6 0.0 -1.0117199421 1.1678783894 -0.502648592 1 0 0
139 1 2 0.0 -0.824695766 0.9070664644 -0.2762520015 1 0 0
140 1 5 0.0 -0.64377141 0.6495168805 0.0322719812 1 0 0
141 1 4 0.0 0.8171523213 -1.166408062 -0.0348591693 -1 0 0
142 1 2 0.0 0.6254578829 1.1411161423 -0.2460660934 -1 -1 0
143 1 6 0.0 0.4192525744 0.6894088387 -0.4476127326 -1 -1 0
144 1 2 0.0 0.2734887004 0.3415980637 -0.6303211451 -1 -1 0
145 1 5 0.0 -0.0492311493 0.0568590797 -0.8614149094 -1 -1 0
146 1 4 0.0 -0.3663906753 1.2273221016 1.2858059406 0 -1 -1
147 1 2 0.0 0.1015883386 1.3299326897 1.1369246244 0 -1 -1
148 1 6 0.0 0.4593996406 -1.2809883356 1.03274405 0 0 -1
149 1 2 0.0 0.9662367702 -0.9991413355 0.8756937385 0 0 -1
150 1 5 0.0 1.2922430038 -0.7474452257 0.7583737969 0 0 -1
151 1 4 0.0 0.8017572165 0.910253346 -0.7044882774 0 -1 1
152 1 2 0.0 0.419763267 1.2080557346 -0.8487927318 0 -1 1
153 1 6 0.0 0.1358343214 -1.3971691132 -1.0405497551 0 0 1
154 1 2 0.0 -0.1989077032 -1.1857095957 -1.3046774864 0 0 1
155 1 5 0.0 -0.4771545827 -1.0300599337 1.285799861 0 0 0
156 1 4 0.0 -1.1801508665 -1.0465464592 -1.2231626511 1 0 0
157 1 2 0.0 1.3026287556 -1.2507295609 1.3369556665 0 0 -1
158 1 6 0.0 1.1193628311 1.3405594826 1.0007075071 0 -1 -1
159 1 2 0.0 1.072939992 0.9545306563 0.6081372499 0 -1 -1
160 1 5 0.0 1.3185743093 0.6005179882 0.4239349961 0 -1 -1

Bonds

1 1 1 2
2 12 1 125
3 2 2 3
4 7 3 121
5 1 4 5
6 11 4 146
7 12 4 100
8 2 5 6
9 1 7 8
10 12 7 140
11 12 7 120
12 2 8 9
13 8 9 90
14 1 10 11
15 12 10 95
16 2 11 12
17 1 13 14
18 12 13 150
19 2 14 15
20 8 15 160
21 7 15 71
22 1 16 17
23 12 16 85
24 11 16 156
25 2 17 18
26 8 18 145
27 7 18 91
28 1 19 20
29 2 20 21
30 8 21 75
31 7 21 131
32 1 22 23
33 2 23 24
34 8 24 70
35 8 24 115
36 1 25 26
37 11 25 106
38 2 26 27
39 7 27 141
40 7 27 116
41 1 28 29
42 11 28 111
43 11 28 86
44 2 29 30
45 1 31 32
46 2 32 33
47 1 34 35
48 11 34 76
49 2 35 36
50 1 37 38
51 2 38 39
52 8 39 110
53 1 40 41
54 11 40 96
55 11 40 81
56 2 41 42
57 8 42 105
58 7 42 126
59 1 43 44
60 11 43 101
61 2 44 45
62 1 46 47
63 12 46 80
64 2 47 48
65 8 48 130
66 8 48 155
67 1 49 50
68 2 50 51
69 1 52 53
70 2 53 54
71 1 55 56
72 11 55 66
73 11 55 136
74 2 56 57
75 8 57 65
76 8 57 135
77 1 58 59
78 11 58 61
79 11 58 151
80 2 59 60
81 5 61 62
82 4 62 63
83 4 63 64
84 3 64 65
85 5 66 67
86 4 67 68
87 4 68 69
88 3 69 70
89 5 71 72
90 4 72 73
91 4 73 74
92 3 74 75
93 5 76 77
94 4 77 78
95 4 78 79
96 3 79 80
97 5 81 82
98 4 82 83
99 4 83 84
100 3 84 85
101 5 86 87
102 4 87 88
103 4 88 89
104 3 89 90
105 5 91 92
106 4 92 93
107 4 93 94
108 3 94 95
109 5 96 97
110 4 97 98
111 4 98 99
112 3 99 100
113 5 101 102
114 4 102 103
115 4 103 104
116 3 104 105
117 5 106 107
118 4 107 108
119 4 108 109
120 3 109 110
121 5 111 112
122 4 112 113
123 4 113 114
124 3 114 115
125 5 116 117
126 4 117 118
127 4 118 119
128 3 119 120
129 5 121 122
130 4 122 123
131 4 123 124
132 3 124 125
133 5 126 127
134 4 127 128
135 4 128 129
136 3 129 130
137 5 131 132
138 4 132 133
139 4 133 134
140 3 134 135
141 5 136 137
142 4 137 138
143 4 138 139
144 3 139 140
145 5 141 142
146 4 142 143
147 4 143 144
148 3 144 145
149 5 146 147
150 4 147 148
151 4 148 149
152 3 149 150
153 5 151 152
154 4 152 153
155 4 153 154
156 3 154 155
157 5 156 157
158 4 157 158
159 4 158 159
160 3 159 160
