# LAMMPS data file written by Ovito 3.0.0-dev349
160 atoms
160 bonds
6 atom types
12 bond types
-1.431199193 1.431199193 xlo xhi
-1.431199193 1.431199193 ylo yhi
-1.431199193 1.431199193 zlo zhi

Atoms # full

1 1 1 0.0 1.1988341808 -0.0931374729 0.5941358805 0 0 0
2 1 2 0.0 -1.3812385798 -0.3784988821 0.0939983055 1 0 0
3 1 3 0.0 -1.042440176 -0.6659895778 -0.1184225306 1 0 0
4 1 1 0.0 -0.8136895299 1.0179721117 -1.2954523563 1 0 1
5 1 2 0.0 -1.1660767794 0.9222405553 1.2716170549 1 0 0
6 1 3 0.0 -1.3302876949 0.9137552977 0.8487375975 1 0 0
7 1 1 0.0 -0.2563463748 0.3719893694 0.3717354536 1 -1 0
8 1 2 0.0 -0.5032211542 0.1023750678 0.6776934862 1 -1 0
9 1 3 0.0 -0.650677681 0.0743224546 1.0531903505 1 -1 0
10 1 1 0.0 1.3147754669 1.2290366888 -0.0299327597 -1 -1 0
11 1 2 0.0 1.2996045351 1.2890536785 -0.532027483 -1 -1 0
12 1 3 0.0 1.1698360443 -1.3570475578 -0.9223585725 -1 0 0
13 1 1 0.0 -1.2422246933 -0.4276047349 0.6337921023 0 0 0
14 1 2 0.0 -1.101549387 -0.0410171412 0.4114495516 0 0 0
15 1 3 0.0 -1.0770900249 0.4089244306 0.3454090357 0 0 0
16 1 1 0.0 -0.7549336553 -0.9073680639 -1.0031813383 -1 0 1
17 1 2 0.0 -0.494394809 -0.662697494 -1.1584043503 -1 0 1
18 1 3 0.0 -0.254830718 -0.1970682442 -1.161944747 -1 0 1
19 1 1 0.0 1.2929098606 -1.0669230223 -0.3557720184 -1 0 1
20 1 2 0.0 0.9271016121 -0.9268436432 -0.6569855213 -1 0 1
21 1 3 0.0 0.6657769084 -0.7154520154 -1.1465277672 -1 0 1
22 1 1 0.0 1.0711561441 0.5204259753 -0.8642141223 0 0 1
23 1 2 0.0 1.1933716536 0.6044747233 -1.2112821341 0 0 1
24 1 3 0.0 -1.4287724495 0.4637914896 1.2637419701 1 0 0
25 1 1 0.0 1.2575443983 0.1356235296 0.0361115448 0 0 1
26 1 2 0.0 0.93895787 -0.2621922791 0.1514062881 0 0 1
27 1 3 0.0 0.9787272215 -0.7867168188 0.2606506646 0 0 1
28 1 1 0.0 0.481787473 -0.8879393339 0.0850254148 0 0 0
29 1 2 0.0 0.4780475497 -0.685158968 0.4649073482 0 0 0
30 1 3 0.0 0.3816957474 -0.2359323502 0.7258921862 0 0 0
31 1 1 0.0 -0.1579975635 -0.366455704 0.6073974967 0 1 0
32 1 2 0.0 -0.0963676721 -0.1569539011 1.046104908 0 1 0
33 1 3 0.0 0.2044583112 -0.0357395858 1.4187108278 0 1 0
34 1 1 0.0 0.1115501001 0.3523930609 0.9870689511 0 -1 -1
35 1 2 0.0 0.5816304088 0.2002210468 1.0363094807 0 -1 -1
36 1 3 0.0 1.0300718546 0.1270018816 1.2851983309 0 -1 -1
37 1 1 0.0 0.8958356977 0.7682424188 1.1651157141 0 0 0
38 1 2 0.0 0.4472205937 0.7464160919 1.0817016363 0 0 0
39 1 3 0.0 0.1247467771 0.85219419 0.8410570621 0 0 0
40 1 1 0.0 0.2331403196 -1.1543529034 0.487677902 0 0 0
41 1 2 0.0 0.1113867834 1.3652590513 0.4553000033 0 -1 0
42 1 3 0.0 0.1633461565 1.0096781254 0.3010350168 0 -1 0
43 1 1 0.0 0.2055908889 -1.0958515406 -0.7906933427 0 0 0
44 1 2 0.0 -0.308427006 -1.1135911942 -0.8664391041 0 0 0
45 1 3 0.0 -0.711792171 1.3874956369 -0.9220710993 0 -1 0
46 1 1 0.0 -0.2535427511 -0.9591156244 0.5893609524 1 0 0
47 1 2 0.0 -0.6752262115 -0.8897049427 0.8515291214 1 0 0
48 1 3 0.0 -0.8415352106 -0.8631803989 1.1931638718 1 0 0
49 1 1 0.0 -0.7489454746 -0.5199812651 0.305670023 0 1 0
50 1 2 0.0 -0.4872801602 -0.8036904931 -0.0544714853 0 1 0
51 1 3 0.0 -0.1819555759 -0.8983901739 -0.4323576689 0 1 0
52 1 1 0.0 -1.307184577 -0.5161688924 1.2699685097 0 1 0
53 1 2 0.0 -1.3586165905 -0.07866548 1.0248714685 0 1 0
54 1 3 0.0 -1.1547939777 0.3394445479 0.834272027 0 1 0
55 1 1 0.0 1.1905595064 -0.38192451 -1.0211722851 -1 0 1
56 1 2 0.0 1.1303068399 -0.4498090446 -1.3226913214 -1 0 1
57 1 3 0.0 1.0700701475 -0.7932392359 1.2004247904 -1 0 0
58 1 1 0.0 -1.389218092 0.923301816 -0.8738603592 0 0 0
59 1 2 0.0 -1.245975256 1.2743510008 -1.1202200651 0 0 0
60 1 3 0.0 -1.0586459637 -1.3766493797 1.2783033848 0 1 -1
61 1 4 0.0 -1.2706675529 0.8234686255 -0.3588574529 1 0 0
62 1 2 0.0 -1.1122043133 0.9488024712 0.0792466402 1 0 0
63 1 6 0.0 -1.0217318535 1.1961379051 0.4468200207 1 0 0
64 1 2 0.0 -1.1437823772 -1.3778423071 0.7528408766 1 1 0
65 1 5 0.0 -1.3922977448 -1.0731159449 0.9414324164 1 1 0
66 1 4 0.0 0.9084661603 -0.0911386013 -0.7034469247 -1 0 0
67 1 2 0.0 0.7715455294 0.10427811 -0.3004718721 -1 0 0
68 1 6 0.0 0.7884886861 0.2981036603 0.1435289234 -1 0 0
69 1 2 0.0 0.9035257101 0.3871714175 0.495767951 -1 0 0
70 1 5 0.0 1.1675024033 0.4293659329 0.8719555736 -1 0 0
71 1 4 0.0 -0.8828305006 0.7328521609 0.6178614497 0 -1 0
72 1 2 0.0 -0.7044888139 1.1217975616 0.874338448 0 -1 0
73 1 6 0.0 -0.4648265541 -1.3598791361 0.9691262841 0 0 0
74 1 2 0.0 -0.1218554452 -1.0721408129 1.153588295 0 0 0
75 1 5 0.0 0.2323538661 -0.9446243644 -1.4262955189 0 0 1
76 1 4 0.0 0.016294349 0.6740870476 1.3883767128 0 0 -1
77 1 2 0.0 -0.1706018299 0.904961586 -1.0705888271 0 0 0
78 1 6 0.0 -0.2601689994 1.1986408234 -0.7016291618 0 0 0
79 1 2 0.0 -0.2673946321 1.4134690762 -0.2678540349 0 0 0
80 1 5 0.0 -0.2522316873 -1.2241330147 0.1501802206 0 1 0
81 1 4 0.0 0.777567029 -1.2631731033 0.4512906373 -1 1 0
82 1 2 0.0 1.1884323359 -1.3152986765 0.4290702343 -1 1 0
83 1 6 0.0 -1.2423166037 -1.2871390581 0.1486637592 0 1 0
84 1 2 0.0 -0.922806859 -1.2133368254 -0.1698550135 0 1 0
85 1 5 0.0 -0.7443280816 -1.0906714201 -0.5577651262 0 1 0
86 1 4 0.0 0.346491158 -1.3648166656 -0.1574774683 0 1 0
87 1 2 0.0 0.2917052209 1.0859787464 -0.4030661583 0 0 0
88 1 6 0.0 0.1400938034 0.7205520272 -0.651904881 0 0 0
89 1 2 0.0 -0.0523604825 0.3859346807 -1.0235584974 0 0 0
90 1 5 0.0 -0.3098168671 0.262465328 -1.4224790335 0 0 0
91 1 4 0.0 -0.2997166514 0.0190983135 -0.671225071 0 0 0
92 1 2 0.0 -0.0688717142 0.1703604907 -0.3578234911 0 0 0
93 1 6 0.0 0.193758592 0.3895446956 -0.1405785978 0 0 0
94 1 2 0.0 0.5224015713 0.6883659959 0.0290219355 0 0 0
95 1 5 0.0 0.8916977644 0.9076867104 0.04456551 0 0 0
96 1 4 0.0 0.0047578476 -0.7377604842 0.14032951 0 0 0
97 1 2 0.0 -0.1944828779 -0.3231932223 -0.0378857851 0 0 0
98 1 6 0.0 -0.5070313811 0.0215197131 -0.1923379898 0 0 0
99 1 2 0.0 -0.7914816141 0.4609190226 -0.4048373103 0 0 0
100 1 5 0.0 -0.8340796232 0.8079175353 -0.7904400826 0 0 0
101 1 4 0.0 0.3527833819 -0.7714454532 -0.4489535987 0 0 0
102 1 2 0.0 0.3816609085 -0.4121212065 -0.0801127851 0 0 0
103 1 6 0.0 0.3779299557 -0.1340462565 0.1696921438 0 0 0
104 1 2 0.0 0.3112923801 0.1780175865 0.3795236349 0 0 0
105 1 5 0.0 0.298838228 0.5331254601 0.4831287861 0 0 0
106 1 4 0.0 -1.4248220921 0.3066381812 -0.4103355408 0 0 0
107 1 2 0.0 -1.2502411604 0.4162726104 -0.846067667 0 0 0
108 1 6 0.0 -1.0102949142 0.5090185404 -1.2110458612 0 0 0
109 1 2 0.0 -0.7628113627 0.5612773299 1.2810555696 0 0 -1
110 1 5 0.0 -0.3191815317 0.661367774 1.0166980028 0 0 -1
111 1 4 0.0 0.8534038663 -0.6819276214 -0.2436834425 -1 0 0
112 1 2 0.0 1.2525336742 -0.5226244926 -0.397560358 -1 0 0
113 1 6 0.0 -1.2929121256 -0.3934436142 -0.6827810407 0 0 0
114 1 2 0.0 -1.1752661467 -0.2079399973 -1.0249289274 0 0 0
115 1 5 0.0 -1.2590450048 0.0741444826 -1.3066891432 0 0 0
116 1 4 0.0 -1.4063410759 -0.8523139358 0.3684113622 -1 1 0
117 1 2 0.0 -0.9974826574 -0.9834504128 0.4773686528 -1 1 0
118 1 6 0.0 -0.6508475542 -1.2558685541 0.464908272 -1 1 0
119 1 2 0.0 -0.4137074351 1.2341973782 0.4666175842 -1 0 0
120 1 5 0.0 -0.2855310738 0.8597424626 0.4570143223 -1 0 0
121 1 4 0.0 -0.6496149302 -0.5224974155 -0.442987442 1 0 0
122 1 2 0.0 -0.1625518203 -0.5560266972 -0.7680642009 1 0 0
123 1 6 0.0 0.1830348969 -0.5047501922 -1.1257721186 1 0 0
124 1 2 0.0 0.4516944289 -0.4443737864 1.2724215984 1 0 -1
125 1 5 0.0 0.8451421857 -0.3033695817 0.9056417942 1 0 -1
126 1 4 0.0 -0.1451857239 0.8711573482 -0.1728001237 0 0 0
127 1 2 0.0 -0.3259287179 0.6631829739 -0.5110256076 0 0 0
128 1 6 0.0 -0.5472730398 0.4089225531 -0.9123604894 0 0 0
129 1 2 0.0 -0.7431904078 0.0578211881 -1.1602525711 0 0 0
130 1 5 0.0 -0.8079665303 -0.3775830567 1.3954232931 0 0 -1
131 1 4 0.0 0.6852376461 -0.1860872507 -1.2138603926 0 0 0
132 1 2 0.0 0.6557669044 0.2793643773 -1.246791482 0 0 0
133 1 6 0.0 0.5986842513 0.681842804 -1.2361967564 0 0 0
134 1 2 0.0 0.5614585876 1.2443141937 -1.3452956676 0 0 0
135 1 5 0.0 0.7398573756 -1.1362234354 1.3601056337 0 1 -1
136 1 4 0.0 1.4269599915 -0.817072928 -0.7978363633 0 1 0
137 1 2 0.0 -1.2395015955 -1.228962779 -0.7071817517 1 1 0
138 1 6 0.0 -0.9897335768 1.2666592598 -0.4936620593 1 0 0
139 1 2 0.0 -0.7140462995 0.9723908305 -0.26667431 1 0 0
140 1 5 0.0 -0.5094150305 0.6257091165 0.029427819 1 0 0
141 1 4 0.0 0.905262053 -1.2305711508 -0.0410103239 -1 0 0
142 1 2 0.0 0.8228265047 1.2106796503 -0.3576913476 -1 -1 0
143 1 6 0.0 0.6818256378 0.7427079678 -0.5151990652 -1 -1 0
144 1 2 0.0 0.5019615889 0.3077478707 -0.7175260186 -1 -1 0
145 1 5 0.0 0.2700323761 -0.0115965046 -0.8966766 -1 -1 0
146 1 4 0.0 -0.3696625829 1.0797700882 1.3332107067 0 -1 -1
147 1 2 0.0 0.0409208387 1.2983051538 1.1540700197 0 -1 -1
148 1 6 0.0 0.3865597844 -1.2416657209 0.9806821942 0 0 -1
149 1 2 0.0 0.6969060302 -0.987008512 0.8591598868 0 0 -1
150 1 5 0.0 1.1506998539 -0.6453743577 0.7145590186 0 0 -1
151 1 4 0.0 0.9723450541 1.0443013906 -0.8922830224 0 -1 1
152 1 2 0.0 0.5178607106 1.1076526642 -0.8748128414 0 -1 1
153 1 6 0.0 0.1473172903 1.2864096165 -1.0151795149 0 -1 1
154 1 2 0.0 -0.2288334221 -1.384570241 -1.2331851721 0 0 1
155 1 5 0.0 -0.5332328081 -1.2065975666 -1.4125047922 0 0 1
156 1 4 0.0 -1.2615332603 -1.0651528835 -1.2324080467 1 0 0
157 1 2 0.0 1.2165442705 -1.3284273148 1.383489728 0 0 -1
158 1 6 0.0 0.9800062776 1.2785279751 0.9945176244 0 -1 -1
159 1 2 0.0 0.9704353213 1.002939105 0.714535892 0 -1 -1
160 1 5 0.0 1.3171145916 0.6837915182 0.3544943333 0 -1 -1

Bonds

1 1 1 2
2 12 1 125
3 2 2 3
4 7 3 121
5 1 4 5
6 11 4 146
7 12 4 100
8 2 5 6
9 1 7 8
10 12 7 140
11 12 7 120
12 2 8 9
13 8 9 90
14 1 10 11
15 12 10 95
16 2 11 12
17 1 13 14
18 12 13 150
19 2 14 15
20 8 15 160
21 7 15 71
22 1 16 17
23 12 16 85
24 11 16 156
25 2 17 18
26 8 18 145
27 7 18 91
28 1 19 20
29 2 20 21
30 8 21 75
31 7 21 131
32 1 22 23
33 2 23 24
34 8 24 70
35 8 24 115
36 1 25 26
37 11 25 106
38 2 26 27
39 7 27 141
40 7 27 116
41 1 28 29
42 11 28 111
43 11 28 86
44 2 29 30
45 1 31 32
46 2 32 33
47 1 34 35
48 11 34 76
49 2 35 36
50 1 37 38
51 2 38 39
52 8 39 110
53 1 40 41
54 11 40 96
55 11 40 81
56 2 41 42
57 8 42 105
58 7 42 126
59 1 43 44
60 11 43 101
61 2 44 45
62 1 46 47
63 12 46 80
64 2 47 48
65 8 48 130
66 8 48 155
67 1 49 50
68 2 50 51
69 1 52 53
70 2 53 54
71 1 55 56
72 11 55 66
73 11 55 136
74 2 56 57
75 8 57 65
76 8 57 135
77 1 58 59
78 11 58 61
79 11 58 151
80 2 59 60
81 5 61 62
82 4 62 63
83 4 63 64
84 3 64 65
85 5 66 67
86 4 67 68
87 4 68 69
88 3 69 70
89 5 71 72
90 4 72 73
91 4 73 74
92 3 74 75
93 5 76 77
94 4 77 78
95 4 78 79
96 3 79 80
97 5 81 82
98 4 82 83
99 4 83 84
100 3 84 85
101 5 86 87
102 4 87 88
103 4 88 89
104 3 89 90
105 5 91 92
106 4 92 93
107 4 93 94
108 3 94 95
109 5 96 97
110 4 97 98
111 4 98 99
112 3 99 100
113 5 101 102
114 4 102 103
115 4 103 104
116 3 104 105
117 5 106 107
118 4 107 108
119 4 108 109
120 3 109 110
121 5 111 112
122 4 112 113
123 4 113 114
124 3 114 115
125 5 116 117
126 4 117 118
127 4 118 119
128 3 119 120
129 5 121 122
130 4 122 123
131 4 123 124
132 3 124 125
133 5 126 127
134 4 127 128
135 4 128 129
136 3 129 130
137 5 131 132
138 4 132 133
139 4 133 134
140 3 134 135
141 5 136 137
142 4 137 138
143 4 138 139
144 3 139 140
145 5 141 142
146 4 142 143
147 4 143 144
148 3 144 145
149 5 146 147
150 4 147 148
151 4 148 149
152 3 149 150
153 5 151 152
154 4 152 153
155 4 153 154
156 3 154 155
157 5 156 157
158 4 157 158
159 4 158 159
160 3 159 160
