# LAMMPS data file written by Ovito 3.0.0-dev349
160 atoms
160 bonds
6 atom types
12 bond types
-1.422218561 1.422218561 xlo xhi
-1.422218561 1.422218561 ylo yhi
-1.422218561 1.422218561 zlo zhi

Atoms # full

1 1 1 0.0 1.3095097542 -0.0836751312 0.5625720024 0 0 0
2 1 2 0.0 -1.3614121675 -0.2655006945 0.1377522647 1 0 0
3 1 3 0.0 -1.0854154825 -0.6501515508 -0.1563609242 1 0 0
4 1 1 0.0 -0.8152132034 0.9348980188 -1.178853631 1 0 1
5 1 2 0.0 -1.1804507971 0.8558704257 1.3342243433 1 0 0
6 1 3 0.0 -1.2557660341 0.7352327108 0.8190698624 1 0 0
7 1 1 0.0 -0.2163736373 0.2822673321 0.2345235497 1 -1 0
8 1 2 0.0 -0.339081049 0.0766495913 0.5673875213 1 -1 0
9 1 3 0.0 -0.3424702883 0.0390645266 1.0931720734 1 -1 0
10 1 1 0.0 1.2768477201 1.2565859556 -0.1584540457 -1 -1 0
11 1 2 0.0 1.2646707296 1.2954587936 -0.6256437898 -1 -1 0
12 1 3 0.0 1.1636593342 -1.2858330011 -1.111120224 -1 0 0
13 1 1 0.0 -1.1429672241 -0.4790248275 0.6197921634 0 0 0
14 1 2 0.0 -0.9596309066 -0.1159905866 0.4587703943 0 0 0
15 1 3 0.0 -1.028776288 0.3875319064 0.3136331439 0 0 0
16 1 1 0.0 -0.7875086069 -0.8300787807 -0.9324944019 -1 0 1
17 1 2 0.0 -0.5321145058 -0.5202131867 -1.1183172464 -1 0 1
18 1 3 0.0 -0.2501507103 -0.1498560011 -1.1035622358 -1 0 1
19 1 1 0.0 1.2936298847 -1.0236054659 -0.2969834208 -1 0 1
20 1 2 0.0 0.9244736433 -0.982365787 -0.7113727927 -1 0 1
21 1 3 0.0 0.6484789252 -0.7294719219 -1.0951539278 -1 0 1
22 1 1 0.0 1.0193378925 0.4922967851 -0.891038835 0 0 1
23 1 2 0.0 1.1422327757 0.5437599421 -1.2708144188 0 0 1
24 1 3 0.0 1.4184991121 0.3933884501 1.2981989384 0 0 0
25 1 1 0.0 1.0926151276 0.0212308764 0.0505761504 0 0 1
26 1 2 0.0 0.947953403 -0.3305125535 0.1170382053 0 0 1
27 1 3 0.0 1.05704391 -0.7843219638 0.1752620637 0 0 1
28 1 1 0.0 0.5292908549 -0.7768836617 0.0667681694 0 0 0
29 1 2 0.0 0.5431585312 -0.4989887178 0.4552734196 0 0 0
30 1 3 0.0 0.3169840574 -0.1827955246 0.8399579525 0 0 0
31 1 1 0.0 -0.3651515543 -0.4883765876 0.7273145914 0 1 0
32 1 2 0.0 -0.0527083725 -0.3660923541 1.1991233826 0 1 0
33 1 3 0.0 0.2251962572 -0.0355574004 1.3868745565 0 1 0
34 1 1 0.0 0.2321430296 0.3921838105 1.0722527504 0 -1 -1
35 1 2 0.0 0.5967256427 0.1621067375 1.1207925081 0 -1 -1
36 1 3 0.0 1.0032807589 0.0514044128 1.3982028961 0 -1 -1
37 1 1 0.0 0.8611774445 0.6421206594 1.121722579 0 0 0
38 1 2 0.0 0.4830018878 0.9098923206 0.9756325483 0 0 0
39 1 3 0.0 0.0281817503 0.9401134849 0.8840638995 0 0 0
40 1 1 0.0 0.2127961814 -1.0323777199 0.503934741 0 0 0
41 1 2 0.0 0.0189145599 -1.4018682241 0.4290870428 0 0 0
42 1 3 0.0 0.1047150418 1.0349464417 0.2194018215 0 -1 0
43 1 1 0.0 0.1845774353 -0.948469162 -0.8196867108 0 0 0
44 1 2 0.0 -0.2015921324 -1.0907613039 -0.697840929 0 0 0
45 1 3 0.0 -0.6083360314 -1.416457057 -0.8666070104 0 0 0
46 1 1 0.0 -0.4472771585 -0.9434973598 0.5260284543 1 0 0
47 1 2 0.0 -0.774731636 -0.9769064784 0.8060127497 1 0 0
48 1 3 0.0 -0.8327108622 -0.9070751071 1.1837328672 1 0 0
49 1 1 0.0 -0.7898117304 -0.5323645473 0.2437880635 0 1 0
50 1 2 0.0 -0.5043920875 -0.779440701 0.0187487509 0 1 0
51 1 3 0.0 -0.2078754753 -0.7853022218 -0.2725932002 0 1 0
52 1 1 0.0 -1.3526638746 -0.3257311285 1.09448421 0 1 0
53 1 2 0.0 -1.1583999395 0.0655830279 0.957878828 0 1 0
54 1 3 0.0 -0.8028022647 0.2344492078 0.8726152778 0 1 0
55 1 1 0.0 1.1550517082 -0.4126955867 -0.9527587891 -1 0 1
56 1 2 0.0 1.0900059938 -0.4430242181 -1.2963491678 -1 0 1
57 1 3 0.0 1.0462059975 -0.7248554826 1.2023180723 -1 0 0
58 1 1 0.0 1.3948410749 0.8821319342 -0.930556953 -1 0 0
59 1 2 0.0 -1.2722980976 1.2339924574 -1.1343336105 0 0 0
60 1 3 0.0 -0.9003869295 1.3573861122 1.3347494602 0 0 -1
61 1 4 0.0 -1.3500016928 0.8107706308 -0.4405216873 1 0 0
62 1 2 0.0 -1.2719334364 0.8818474412 0.0162684247 1 0 0
63 1 6 0.0 -1.1692942381 1.06232512 0.399574846 1 0 0
64 1 2 0.0 -1.2339756489 -1.3902989626 0.6923820376 1 1 0
65 1 5 0.0 1.4185596704 -1.0020207167 0.8809017539 0 1 0
66 1 4 0.0 0.8335587978 -0.2177686393 -0.6416293979 -1 0 0
67 1 2 0.0 0.6042420864 0.0093452381 -0.2745818198 -1 0 0
68 1 6 0.0 0.5739851594 0.1369143426 0.0964523181 -1 0 0
69 1 2 0.0 0.7961708307 0.2137847096 0.4769361615 -1 0 0
70 1 5 0.0 1.1001089811 0.2795027792 0.8713454604 -1 0 0
71 1 4 0.0 -0.8014745712 0.7273777127 0.5774070621 0 -1 0
72 1 2 0.0 -0.6415882707 1.1571924686 0.8312136531 0 -1 0
73 1 6 0.0 -0.3826721013 -1.3139295578 1.007552743 0 0 0
74 1 2 0.0 -0.1105415225 -1.0007008314 1.1308079958 0 0 0
75 1 5 0.0 0.2155544758 -0.8932474256 1.3860962391 0 0 0
76 1 4 0.0 0.0998905152 0.7833949924 -1.4151201248 0 0 0
77 1 2 0.0 -0.0333013497 1.0434551239 -1.0585780144 0 0 0
78 1 6 0.0 -0.1613990366 1.2328757048 -0.7384259105 0 0 0
79 1 2 0.0 -0.2422460616 -1.3946474791 -0.2879144847 0 1 0
80 1 5 0.0 -0.3314566612 -1.2352319956 0.0874891579 0 1 0
81 1 4 0.0 0.6826969981 -1.1986966133 0.4298960567 -1 1 0
82 1 2 0.0 1.1927524805 -1.3995286226 0.3096379638 -1 1 0
83 1 6 0.0 -1.2099683285 -1.3676410913 0.1061828882 0 1 0
84 1 2 0.0 -0.8603268862 -1.2188924551 -0.1675270945 0 1 0
85 1 5 0.0 -0.7073376179 -1.0487636328 -0.4604919851 0 1 0
86 1 4 0.0 0.2679007649 -1.2313714027 -0.0636415109 0 1 0
87 1 2 0.0 0.2558406591 1.1880162954 -0.2940239906 0 0 0
88 1 6 0.0 0.1223101541 0.7630986571 -0.6212975383 0 0 0
89 1 2 0.0 0.0313014016 0.5134633183 -0.9519048333 0 0 0
90 1 5 0.0 -0.1933665276 0.3814184666 -1.330116272 0 0 0
91 1 4 0.0 -0.2462438494 0.062813051 -0.6090041995 0 0 0
92 1 2 0.0 -0.0576659068 0.2881340981 -0.269855231 0 0 0
93 1 6 0.0 0.2415706962 0.5211273432 -0.045072414 0 0 0
94 1 2 0.0 0.60604316 0.7517983317 0.1810794175 0 0 0
95 1 5 0.0 0.9606412649 0.9498553276 0.1094724387 0 0 0
96 1 4 0.0 0.0392480791 -0.643239975 0.3265539408 0 0 0
97 1 2 0.0 -0.2760582566 -0.3383553922 0.1021233723 0 0 0
98 1 6 0.0 -0.5812671185 -0.044737298 -0.1501389295 0 0 0
99 1 2 0.0 -0.8580056429 0.3155825734 -0.4701952636 0 0 0
100 1 5 0.0 -0.8822267652 0.7067283988 -0.7954627872 0 0 0
101 1 4 0.0 0.2844364047 -0.5920580626 -0.4379948974 0 0 0
102 1 2 0.0 0.2380303293 -0.3423362374 -0.0453174599 0 0 0
103 1 6 0.0 0.154045701 -0.1067764312 0.2981533408 0 0 0
104 1 2 0.0 0.2095554769 0.2221432775 0.4797404706 0 0 0
105 1 5 0.0 0.1580421925 0.6125537157 0.483419776 0 0 0
106 1 4 0.0 1.3088787794 0.1527865827 -0.4271670878 -1 0 0
107 1 2 0.0 -1.2931648493 0.3432768583 -0.7884764671 0 0 0
108 1 6 0.0 -1.0550396442 0.4735364914 -1.1894671917 0 0 0
109 1 2 0.0 -0.7083240151 0.5427033901 1.3358674049 0 0 -1
110 1 5 0.0 -0.3656733632 0.6942778826 1.0945072174 0 0 -1
111 1 4 0.0 0.9000359178 -0.6923016906 -0.2819671035 -1 0 0
112 1 2 0.0 1.2783062458 -0.5211692452 -0.4667518735 -1 0 0
113 1 6 0.0 -1.1723400354 -0.3896667659 -0.7054572701 0 0 0
114 1 2 0.0 -1.0946643353 -0.2681009471 -1.021826148 0 0 0
115 1 5 0.0 -1.187731266 0.0099453311 -1.3643264771 0 0 0
116 1 4 0.0 -1.2985289097 -0.8846540451 0.2567336559 -1 1 0
117 1 2 0.0 -1.0034890175 -0.9956399202 0.3158368468 -1 1 0
118 1 6 0.0 -0.7677790523 -1.3478112221 0.4003668427 -1 1 0
119 1 2 0.0 -0.4892401099 1.145747304 0.3560753763 -1 0 0
120 1 5 0.0 -0.3131951094 0.7281339169 0.3304289877 -1 0 0
121 1 4 0.0 -0.6778977513 -0.5224684477 -0.4781186283 1 0 0
122 1 2 0.0 -0.1669813395 -0.5008426905 -0.7090563178 1 0 0
123 1 6 0.0 0.177646324 -0.4702862203 -1.0897471905 1 0 0
124 1 2 0.0 0.5523199439 -0.3879957199 1.2949221134 1 0 -1
125 1 5 0.0 0.9143000841 -0.2723831534 0.9006966949 1 0 -1
126 1 4 0.0 -0.2185018063 0.9101758599 -0.219640404 0 0 0
127 1 2 0.0 -0.4383918047 0.663877368 -0.5785481334 0 0 0
128 1 6 0.0 -0.5952172279 0.3407313228 -0.9567089081 0 0 0
129 1 2 0.0 -0.7009200454 -0.0065707592 -1.279422164 0 0 0
130 1 5 0.0 -0.8357887864 -0.3791975677 1.3481410742 0 0 -1
131 1 4 0.0 0.6513543129 -0.2009726316 -1.0926669836 0 0 0
132 1 2 0.0 0.5749570131 0.2765250802 -1.2044603825 0 0 0
133 1 6 0.0 0.6316347718 0.6961733103 -1.2676010132 0 0 0
134 1 2 0.0 0.7098158002 1.1544088125 1.403686285 0 0 -1
135 1 5 0.0 0.8449856639 -1.1769675016 1.3029489517 0 1 -1
136 1 4 0.0 -1.4039700031 -0.8249918818 -0.8330831528 1 1 0
137 1 2 0.0 -1.1904886961 -1.1832491159 -0.6449821591 1 1 0
138 1 6 0.0 -1.0417019129 1.2471503019 -0.4864548743 1 0 0
139 1 2 0.0 -0.8486847281 0.8677941561 -0.2667925954 1 0 0
140 1 5 0.0 -0.5582304597 0.5080869794 -0.0850484073 1 0 0
141 1 4 0.0 0.8506432176 -1.2175254822 -0.0685531721 -1 0 0
142 1 2 0.0 0.7693155408 1.126629591 -0.3391977847 -1 -1 0
143 1 6 0.0 0.6677879691 0.7270895839 -0.5268298388 -1 -1 0
144 1 2 0.0 0.4789331257 0.2985259593 -0.6939268708 -1 -1 0
145 1 5 0.0 0.2103469521 -0.022474777 -0.8773091435 -1 -1 0
146 1 4 0.0 -0.3867529929 1.1201509237 -1.3975349665 0 -1 0
147 1 2 0.0 0.0181462374 1.3067048788 1.2625267506 0 -1 -1
148 1 6 0.0 0.3659102321 -1.2028104067 1.0188566446 0 0 -1
149 1 2 0.0 0.7562656999 -0.8909649253 0.7980768085 0 0 -1
150 1 5 0.0 1.2055432796 -0.6323692203 0.6357027888 0 0 -1
151 1 4 0.0 0.9012933373 1.0720226765 -0.9507097006 0 -1 1
152 1 2 0.0 0.5432342291 1.2581840754 -0.9658431411 0 -1 1
153 1 6 0.0 0.2143581063 -1.3588505983 -1.0739263296 0 0 1
154 1 2 0.0 -0.1193177626 -1.2025432587 -1.1662076712 0 0 1
155 1 5 0.0 -0.4351896644 -1.075322628 -1.3236470222 0 0 1
156 1 4 0.0 -1.1830290556 -1.0622726679 -1.2873274088 1 0 0
157 1 2 0.0 1.3931481838 -1.3904681206 1.2526403666 0 0 -1
158 1 6 0.0 1.1596517563 1.1297096014 0.9702906013 0 -1 -1
159 1 2 0.0 1.1264859438 0.8242820501 0.690169394 0 -1 -1
160 1 5 0.0 1.2999113798 0.5088829398 0.4083525538 0 -1 -1

Bonds

1 1 1 2
2 12 1 125
3 2 2 3
4 7 3 121
5 1 4 5
6 11 4 146
7 12 4 100
8 2 5 6
9 1 7 8
10 12 7 140
11 12 7 120
12 2 8 9
13 8 9 90
14 1 10 11
15 12 10 95
16 2 11 12
17 1 13 14
18 12 13 150
19 2 14 15
20 8 15 160
21 7 15 71
22 1 16 17
23 12 16 85
24 11 16 156
25 2 17 18
26 8 18 145
27 7 18 91
28 1 19 20
29 2 20 21
30 8 21 75
31 7 21 131
32 1 22 23
33 2 23 24
34 8 24 70
35 8 24 115
36 1 25 26
37 11 25 106
38 2 26 27
39 7 27 141
40 7 27 116
41 1 28 29
42 11 28 111
43 11 28 86
44 2 29 30
45 1 31 32
46 2 32 33
47 1 34 35
48 11 34 76
49 2 35 36
50 1 37 38
51 2 38 39
52 8 39 110
53 1 40 41
54 11 40 96
55 11 40 81
56 2 41 42
57 8 42 105
58 7 42 126
59 1 43 44
60 11 43 101
61 2 44 45
62 1 46 47
63 12 46 80
64 2 47 48
65 8 48 130
66 8 48 155
67 1 49 50
68 2 50 51
69 1 52 53
70 2 53 54
71 1 55 56
72 11 55 66
73 11 55 136
74 2 56 57
75 8 57 65
76 8 57 135
77 1 58 59
78 11 58 61
79 11 58 151
80 2 59 60
81 5 61 62
82 4 62 63
83 4 63 64
84 3 64 65
85 5 66 67
86 4 67 68
87 4 68 69
88 3 69 70
89 5 71 72
90 4 72 73
91 4 73 74
92 3 74 75
93 5 76 77
94 4 77 78
95 4 78 79
96 3 79 80
97 5 81 82
98 4 82 83
99 4 83 84
100 3 84 85
101 5 86 87
102 4 87 88
103 4 88 89
104 3 89 90
105 5 91 92
106 4 92 93
107 4 93 94
108 3 94 95
109 5 96 97
110 4 97 98
111 4 98 99
112 3 99 100
113 5 101 102
114 4 102 103
115 4 103 104
116 3 104 105
117 5 106 107
118 4 107 108
119 4 108 109
120 3 109 110
121 5 111 112
122 4 112 113
123 4 113 114
124 3 114 115
125 5 116 117
126 4 117 118
127 4 118 119
128 3 119 120
129 5 121 122
130 4 122 123
131 4 123 124
132 3 124 125
133 5 126 127
134 4 127 128
135 4 128 129
136 3 129 130
137 5 131 132
138 4 132 133
139 4 133 134
140 3 134 135
141 5 136 137
142 4 137 138
143 4 138 139
144 3 139 140
145 5 141 142
146 4 142 143
147 4 143 144
148 3 144 145
149 5 146 147
150 4 147 148
151 4 148 149
152 3 149 150
153 5 151 152
154 4 152 153
155 4 153 154
156 3 154 155
157 5 156 157
158 4 157 158
159 4 158 159
160 3 159 160
