# LAMMPS data file written by Ovito 3.0.0-dev349
160 atoms
160 bonds
6 atom types
12 bond types
-1.4141499995 1.4141499995 xlo xhi
-1.4141499995 1.4141499995 ylo yhi
-1.4141499995 1.4141499995 zlo zhi

Atoms # full

1 1 1 0.0 1.2624797821 -0.1043708101 0.5830286145 0 0 0
2 1 2 0.0 -1.3758987188 -0.2916081548 0.0559759438 1 0 0
3 1 3 0.0 -1.0612773895 -0.625323832 -0.2264298052 1 0 0
4 1 1 0.0 -0.8364859223 0.9778289199 -1.2826293707 1 0 1
5 1 2 0.0 -1.1373397112 0.9032419324 1.2856481075 1 0 0
6 1 3 0.0 -1.3397477865 0.9145231247 0.8489946723 1 0 0
7 1 1 0.0 -0.2595698535 0.2223074883 0.2575100064 1 -1 0
8 1 2 0.0 -0.3760505021 -0.0369115248 0.6268419027 1 -1 0
9 1 3 0.0 -0.32049945 -0.0795437992 1.1314913034 1 -1 0
10 1 1 0.0 1.3145594597 1.1239182949 -0.1722610742 -1 -1 0
11 1 2 0.0 1.3169741631 1.264492631 -0.5959932804 -1 -1 0
12 1 3 0.0 1.0922970772 -1.3039073944 -0.9750599265 -1 0 0
13 1 1 0.0 -1.1778622866 -0.4993188381 0.5649063587 0 0 0
14 1 2 0.0 -1.0353294611 -0.0492926985 0.3746360838 0 0 0
15 1 3 0.0 -1.1288183928 0.4717667997 0.4129377902 0 0 0
16 1 1 0.0 -0.7928701043 -0.7630608678 -1.0100415945 -1 0 1
17 1 2 0.0 -0.4683780372 -0.5023121238 -1.1566224098 -1 0 1
18 1 3 0.0 -0.2879113853 -0.1317517906 -1.0957537889 -1 0 1
19 1 1 0.0 1.3395944834 -1.0406056643 -0.3727459908 -1 0 1
20 1 2 0.0 0.8956223726 -0.9586578608 -0.6832571626 -1 0 1
21 1 3 0.0 0.7360560894 -0.7469798923 -1.0742447376 -1 0 1
22 1 1 0.0 0.9802350998 0.428950727 -0.7877088785 0 0 1
23 1 2 0.0 1.1019827127 0.6027041674 -1.2011497021 0 0 1
24 1 3 0.0 1.3062915802 0.5361978412 1.1744681597 0 0 0
25 1 1 0.0 1.2061032057 0.1885525435 0.0656487197 0 0 1
26 1 2 0.0 0.9743298888 -0.3705215752 0.231874451 0 0 1
27 1 3 0.0 1.0922112465 -0.8522081375 0.20623748 0 0 1
28 1 1 0.0 0.610874474 -0.7745895386 0.0684608966 0 0 0
29 1 2 0.0 0.6007756591 -0.5513886809 0.5304012299 0 0 0
30 1 3 0.0 0.3560680449 -0.2757564485 0.8646884561 0 0 0
31 1 1 0.0 -0.3665215373 -0.5847886205 0.9621050954 0 1 0
32 1 2 0.0 -0.0162037369 -0.4179627299 1.2676688433 0 1 0
33 1 3 0.0 0.2179463804 -0.1368853599 1.4057714939 0 1 0
34 1 1 0.0 0.1464805901 0.4441004694 1.055693984 0 -1 -1
35 1 2 0.0 0.5872272849 0.2212812901 1.0859395266 0 -1 -1
36 1 3 0.0 0.9521446228 0.0356107987 1.3575814962 0 -1 -1
37 1 1 0.0 0.9104976058 0.9235679507 1.2009707689 0 0 0
38 1 2 0.0 0.5368987322 0.863266468 0.887476325 0 0 0
39 1 3 0.0 0.1525076479 0.9237927198 0.7916120291 0 0 0
40 1 1 0.0 0.284408778 -1.0607863665 0.538767755 0 0 0
41 1 2 0.0 0.0699429587 1.4042565823 0.4056818187 0 -1 0
42 1 3 0.0 0.1026399583 0.9980660677 0.2440080494 0 -1 0
43 1 1 0.0 0.2941182256 -1.0710645914 -0.8264998794 0 0 0
44 1 2 0.0 -0.1205200106 -1.2100061178 -0.7044969201 0 0 0
45 1 3 0.0 -0.6081197262 -1.2957139015 -0.8897950053 0 0 0
46 1 1 0.0 -0.4213647246 -0.9131300449 0.5414507985 1 0 0
47 1 2 0.0 -0.7487610579 -0.9199655056 0.7984035015 1 0 0
48 1 3 0.0 -0.871155858 -0.7734377384 1.1435573101 1 0 0
49 1 1 0.0 -0.6795862913 -0.5089191794 0.4343069196 0 1 0
50 1 2 0.0 -0.6212761402 -0.7754833698 0.0256738402 0 1 0
51 1 3 0.0 -0.3075889647 -0.908070147 -0.3249381483 0 1 0
52 1 1 0.0 -1.3197920322 -0.4809206724 1.0964651108 0 1 0
53 1 2 0.0 -1.1312072277 -0.0779278129 0.8976615071 0 1 0
54 1 3 0.0 -0.7718334794 0.2578046024 0.7888082266 0 1 0
55 1 1 0.0 1.1832233667 -0.4149400592 -1.005076766 -1 0 1
56 1 2 0.0 1.1157125235 -0.5034090281 -1.3837026358 -1 0 1
57 1 3 0.0 1.0562394857 -0.715508163 1.2239181995 -1 0 0
58 1 1 0.0 -1.4041426182 0.9286052585 -0.9503970742 0 0 0
59 1 2 0.0 -1.2153706551 1.3060404062 -1.203858614 0 0 0
60 1 3 0.0 -0.9190064669 -1.3710209131 1.2821394205 0 1 -1
61 1 4 0.0 -1.2448502779 0.7885686755 -0.4719402492 1 0 0
62 1 2 0.0 -1.1709100008 0.7866157889 -0.047018785 1 0 0
63 1 6 0.0 -1.1448066235 1.053853631 0.3348510563 1 0 0
64 1 2 0.0 -1.1929993629 -1.3764894009 0.7080236673 1 1 0
65 1 5 0.0 -1.3856765032 -1.0112493038 0.9318106174 1 1 0
66 1 4 0.0 0.8125522137 -0.2149125487 -0.6151338816 -1 0 0
67 1 2 0.0 0.671366334 -0.0591631569 -0.2708441019 -1 0 0
68 1 6 0.0 0.6732422709 0.1360397786 0.1071089059 -1 0 0
69 1 2 0.0 0.8148374557 0.3344577253 0.466183573 -1 0 0
70 1 5 0.0 1.0355927944 0.4449171722 0.7894375324 -1 0 0
71 1 4 0.0 -0.8237336278 0.7732622027 0.7117878199 0 -1 0
72 1 2 0.0 -0.6864034534 1.1239191294 0.9223060608 0 -1 0
73 1 6 0.0 -0.4495264292 -1.3262695074 1.0380144119 0 0 0
74 1 2 0.0 -0.0709977895 -1.0366113186 1.2082756758 0 0 0
75 1 5 0.0 0.277433753 -0.9178862572 -1.3543541431 0 0 1
76 1 4 0.0 0.0229647122 0.7871934175 -1.4116600752 0 0 0
77 1 2 0.0 -0.2188866884 0.9916014075 -0.99969697 0 0 0
78 1 6 0.0 -0.3257251084 1.1376386881 -0.6266459823 0 0 0
79 1 2 0.0 -0.3856940567 -1.4056522846 -0.2078024745 0 1 0
80 1 5 0.0 -0.3999246359 -1.1870234013 0.1120784283 0 1 0
81 1 4 0.0 0.8290577531 -1.2187275887 0.4345758855 -1 1 0
82 1 2 0.0 1.2568031549 -1.364590764 0.3160559237 -1 1 0
83 1 6 0.0 -1.241008997 -1.3498618603 0.0625307858 0 1 0
84 1 2 0.0 -0.9828008413 -1.2121856213 -0.1954519749 0 1 0
85 1 5 0.0 -0.8109605908 -1.0792239904 -0.4554316103 0 1 0
86 1 4 0.0 0.3486253619 -1.216620326 -0.0880547091 0 1 0
87 1 2 0.0 0.2058924884 1.2788585424 -0.294903785 0 0 0
88 1 6 0.0 0.1142890528 0.8647354841 -0.6314227581 0 0 0
89 1 2 0.0 0.0182176456 0.5285662413 -0.9688961506 0 0 0
90 1 5 0.0 -0.0918546021 0.279524833 -1.3360095024 0 0 0
91 1 4 0.0 -0.3614655137 -0.0217203926 -0.6119063497 0 0 0
92 1 2 0.0 -0.1544433683 0.1451532096 -0.2596212924 0 0 0
93 1 6 0.0 0.1766083241 0.4054839015 -0.0309095159 0 0 0
94 1 2 0.0 0.5065792799 0.6847928762 0.031618733 0 0 0
95 1 5 0.0 0.8368217945 0.8809676766 -0.0135043515 0 0 0
96 1 4 0.0 0.0397915356 -0.6252946258 0.3929560781 0 0 0
97 1 2 0.0 -0.2539318502 -0.3479561806 0.1628472954 0 0 0
98 1 6 0.0 -0.6137598157 -0.001319784 -0.1189587638 0 0 0
99 1 2 0.0 -0.8342759609 0.3773001134 -0.4909414649 0 0 0
100 1 5 0.0 -0.9253453612 0.7536042929 -0.8542866111 0 0 0
101 1 4 0.0 0.3713015914 -0.737695992 -0.4043496847 0 0 0
102 1 2 0.0 0.3223433793 -0.3592400551 -0.0518033952 0 0 0
103 1 6 0.0 0.2986805737 -0.15880014 0.294124186 0 0 0
104 1 2 0.0 0.2993586957 0.149453938 0.4778828919 0 0 0
105 1 5 0.0 0.234206602 0.5196956396 0.4642814994 0 0 0
106 1 4 0.0 1.3123700619 0.258031249 -0.4215843976 -1 0 0
107 1 2 0.0 -1.3242287636 0.3259913921 -0.8863219619 0 0 0
108 1 6 0.0 -1.1077705622 0.4843268096 -1.2518409491 0 0 0
109 1 2 0.0 -0.7176249623 0.568004787 1.2301338911 0 0 -1
110 1 5 0.0 -0.3061334491 0.7063955069 1.007289052 0 0 -1
111 1 4 0.0 0.9353944063 -0.6022309661 -0.2586989403 -1 0 0
112 1 2 0.0 1.278778553 -0.5306969285 -0.4700467885 -1 0 0
113 1 6 0.0 -1.2014765739 -0.349752605 -0.7411640882 0 0 0
114 1 2 0.0 -1.1394399405 -0.1755415648 -1.1406801939 0 0 0
115 1 5 0.0 -1.2994413376 0.0682774037 1.3566921949 0 0 -1
116 1 4 0.0 -1.2471557856 -0.9152130485 0.2982729077 -1 1 0
117 1 2 0.0 -0.9419081807 -1.0703780651 0.3827463388 -1 1 0
118 1 6 0.0 -0.673060894 -1.3760590553 0.471837014 -1 1 0
119 1 2 0.0 -0.3369491398 1.1162228584 0.554620564 -1 0 0
120 1 5 0.0 -0.2760213912 0.7028867602 0.462466687 -1 0 0
121 1 4 0.0 -0.6317860484 -0.5485598445 -0.5192264915 1 0 0
122 1 2 0.0 -0.1627299041 -0.5402784348 -0.715638876 1 0 0
123 1 6 0.0 0.2133071423 -0.5254144073 -1.0176882744 1 0 0
124 1 2 0.0 0.5558886528 -0.5334338546 1.3413412571 1 0 -1
125 1 5 0.0 0.8950312138 -0.3291055262 0.9441592097 1 0 -1
126 1 4 0.0 -0.1551353186 0.8495777845 -0.148392573 0 0 0
127 1 2 0.0 -0.3635343313 0.6052536964 -0.5958987474 0 0 0
128 1 6 0.0 -0.4957750738 0.3826165199 -0.9919262528 0 0 0
129 1 2 0.0 -0.6530008912 0.1021544188 -1.3113746643 0 0 0
130 1 5 0.0 -0.794121623 -0.2679354548 1.2844595909 0 0 -1
131 1 4 0.0 0.6384874582 -0.1885486692 -1.0856186152 0 0 0
132 1 2 0.0 0.5724645257 0.3457610905 -1.215471983 0 0 0
133 1 6 0.0 0.5667137504 0.820630312 -1.2996412516 0 0 0
134 1 2 0.0 0.563575983 1.2538608313 -1.3556249142 0 0 0
135 1 5 0.0 0.7803907394 -1.099575758 -1.4099826813 0 1 0
136 1 4 0.0 -1.4099104404 -0.8019502759 -0.8703250885 1 1 0
137 1 2 0.0 -1.1523556709 -1.2116789818 -0.7942377925 1 1 0
138 1 6 0.0 -0.937253058 1.2415874004 -0.580750227 1 0 0
139 1 2 0.0 -0.7199544311 0.8841515183 -0.2928758264 1 0 0
140 1 5 0.0 -0.5394173265 0.5604227185 -0.0617247336 1 0 0
141 1 4 0.0 0.8877208233 -1.1999279261 -0.1219396889 -1 0 0
142 1 2 0.0 0.7559409142 1.2057056427 -0.39891994 -1 -1 0
143 1 6 0.0 0.6264691949 0.7258153558 -0.5036985278 -1 -1 0
144 1 2 0.0 0.4337788522 0.2715858221 -0.689186275 -1 -1 0
145 1 5 0.0 0.1681895405 -0.042294126 -0.8688647151 -1 -1 0
146 1 4 0.0 -0.3875854313 1.0993807316 1.3641762733 0 -1 -1
147 1 2 0.0 0.0343678184 1.2904835939 1.196655035 0 -1 -1
148 1 6 0.0 0.3654485643 -1.2826681137 1.0299869776 0 0 -1
149 1 2 0.0 0.7339894176 -0.9780990481 0.9029704332 0 0 -1
150 1 5 0.0 1.1677523851 -0.6711084843 0.6977661848 0 0 -1
151 1 4 0.0 0.9268009067 1.0014164448 -0.8922903538 0 -1 1
152 1 2 0.0 0.5315062404 1.1416515112 -0.8663791418 0 -1 1
153 1 6 0.0 0.1482381076 1.3093878031 -1.06604743 0 -1 1
154 1 2 0.0 -0.2165286094 -1.251393795 -1.2168126106 0 0 1
155 1 5 0.0 -0.5318271518 -1.0267174244 -1.4090483189 0 0 1
156 1 4 0.0 -1.2088652849 -0.9768186808 -1.3458805084 1 0 0
157 1 2 0.0 1.2588722706 -1.2835060358 1.2702330351 0 0 -1
158 1 6 0.0 1.0552257299 1.3803908825 0.9675768018 0 -1 -1
159 1 2 0.0 1.0308265686 1.0295962095 0.6226542592 0 -1 -1
160 1 5 0.0 1.2228082418 0.7014858723 0.4321347773 0 -1 -1

Bonds

1 1 1 2
2 12 1 125
3 2 2 3
4 7 3 121
5 1 4 5
6 11 4 146
7 12 4 100
8 2 5 6
9 1 7 8
10 12 7 140
11 12 7 120
12 2 8 9
13 8 9 90
14 1 10 11
15 12 10 95
16 2 11 12
17 1 13 14
18 12 13 150
19 2 14 15
20 8 15 160
21 7 15 71
22 1 16 17
23 12 16 85
24 11 16 156
25 2 17 18
26 8 18 145
27 7 18 91
28 1 19 20
29 2 20 21
30 8 21 75
31 7 21 131
32 1 22 23
33 2 23 24
34 8 24 70
35 8 24 115
36 1 25 26
37 11 25 106
38 2 26 27
39 7 27 141
40 7 27 116
41 1 28 29
42 11 28 111
43 11 28 86
44 2 29 30
45 1 31 32
46 2 32 33
47 1 34 35
48 11 34 76
49 2 35 36
50 1 37 38
51 2 38 39
52 8 39 110
53 1 40 41
54 11 40 96
55 11 40 81
56 2 41 42
57 8 42 105
58 7 42 126
59 1 43 44
60 11 43 101
61 2 44 45
62 1 46 47
63 12 46 80
64 2 47 48
65 8 48 130
66 8 48 155
67 1 49 50
68 2 50 51
69 1 52 53
70 2 53 54
71 1 55 56
72 11 55 66
73 11 55 136
74 2 56 57
75 8 57 65
76 8 57 135
77 1 58 59
78 11 58 61
79 11 58 151
80 2 59 60
81 5 61 62
82 4 62 63
83 4 63 64
84 3 64 65
85 5 66 67
86 4 67 68
87 4 68 69
88 3 69 70
89 5 71 72
90 4 72 73
91 4 73 74
92 3 74 75
93 5 76 77
94 4 77 78
95 4 78 79
96 3 79 80
97 5 81 82
98 4 82 83
99 4 83 84
100 3 84 85
101 5 86 87
102 4 87 88
103 4 88 89
104 3 89 90
105 5 91 92
106 4 92 93
107 4 93 94
108 3 94 95
109 5 96 97
110 4 97 98
111 4 98 99
112 3 99 100
113 5 101 102
114 4 102 103
115 4 103 104
116 3 104 105
117 5 106 107
118 4 107 108
119 4 108 109
120 3 109 110
121 5 111 112
122 4 112 113
123 4 113 114
124 3 114 115
125 5 116 117
126 4 117 118
127 4 118 119
128 3 119 120
129 5 121 122
130 4 122 123
131 4 123 124
132 3 124 125
133 5 126 127
134 4 127 128
135 4 128 129
136 3 129 130
137 5 131 132
138 4 132 133
139 4 133 134
140 3 134 135
141 5 136 137
142 4 137 138
143 4 138 139
144 3 139 140
145 5 141 142
146 4 142 143
147 4 143 144
148 3 144 145
149 5 146 147
150 4 147 148
151 4 148 149
152 3 149 150
153 5 151 152
154 4 152 153
155 4 153 154
156 3 154 155
157 5 156 157
158 4 157 158
159 4 158 159
160 3 159 160
