# LAMMPS data file written by Ovito 3.0.0-dev349
160 atoms
160 bonds
6 atom types
12 bond types
-1.425565958 1.425565958 xlo xhi
-1.425565958 1.425565958 ylo yhi
-1.425565958 1.425565958 zlo zhi

Atoms # full

1 1 1 0.0 1.3801981211 -0.132795319 0.5883419514 0 0 0
2 1 2 0.0 -1.288792491 -0.3505100012 0.1221449077 1 0 0
3 1 3 0.0 -1.000336647 -0.6748275757 -0.1563878804 1 0 0
4 1 1 0.0 -0.856346786 0.9877848625 -1.234718442 1 0 1
5 1 2 0.0 -1.1905268431 0.9130330682 1.3809975386 1 0 0
6 1 3 0.0 -1.3870677948 0.895318687 0.9620814323 1 0 0
7 1 1 0.0 -0.2202225626 0.228918761 0.3192305565 1 -1 0
8 1 2 0.0 -0.3558687568 -0.0138455983 0.69569695 1 -1 0
9 1 3 0.0 -0.5040352941 -0.041152522 1.0509454012 1 -1 0
10 1 1 0.0 1.2920680046 1.2377505302 -0.4390624166 -1 -1 0
11 1 2 0.0 1.0960997343 -1.372802496 -0.7617012858 -1 0 0
12 1 3 0.0 0.6533564329 -1.2631018162 -0.9244850278 -1 0 0
13 1 1 0.0 -1.0897798538 -0.5043877363 0.5839834809 0 0 0
14 1 2 0.0 -1.0312730074 0.0035747234 0.4169284701 0 0 0
15 1 3 0.0 -1.1677302122 0.4881095886 0.4302749932 0 0 0
16 1 1 0.0 -0.7438090444 -0.8102636933 -1.0372389555 -1 0 1
17 1 2 0.0 -0.4431882203 -0.4708083272 -1.1704193354 -1 0 1
18 1 3 0.0 -0.1853460222 -0.0984759256 -1.0794192553 -1 0 1
19 1 1 0.0 1.3607356548 -1.0099151134 -0.2899814546 -1 0 1
20 1 2 0.0 0.9347178936 -0.9139234424 -0.5813824534 -1 0 1
21 1 3 0.0 0.6935114264 -0.6409202218 -1.0170686245 -1 0 1
22 1 1 0.0 1.0958658457 0.4863295257 -0.748059094 0 0 1
23 1 2 0.0 1.2650455236 0.5958778262 -1.2631300688 0 0 1
24 1 3 0.0 -1.3552110195 0.3697138727 1.225125432 1 0 0
25 1 1 0.0 1.2758162022 0.0809103101 0.0899311453 0 0 1
26 1 2 0.0 1.0496021509 -0.2868430614 0.2086102515 0 0 1
27 1 3 0.0 1.0626145601 -0.7690267563 0.2094041407 0 0 1
28 1 1 0.0 0.4295912087 -0.7631266117 0.0761307627 0 0 0
29 1 2 0.0 0.3599229157 -0.6147407293 0.5375908017 0 0 0
30 1 3 0.0 0.307394743 -0.2446495593 0.865414083 0 0 0
31 1 1 0.0 -0.3893963695 -0.5663267374 0.9789554477 0 1 0
32 1 2 0.0 -0.0327246711 -0.3640116155 1.2613381147 0 1 0
33 1 3 0.0 0.1894699931 -0.0273586772 1.3949213028 0 1 0
34 1 1 0.0 0.212029621 0.4504302442 1.0301644802 0 -1 -1
35 1 2 0.0 0.6064627767 0.1756302863 1.1639496088 0 -1 -1
36 1 3 0.0 1.0727757215 0.1282490641 1.3731462955 0 -1 -1
37 1 1 0.0 0.721401453 0.7129479647 0.8681592345 0 0 0
38 1 2 0.0 0.2894779742 0.977776289 0.8818861246 0 0 0
39 1 3 0.0 -0.072308436 1.0288578272 0.8121390939 0 0 0
40 1 1 0.0 0.2399911433 -1.1155130863 0.4352262318 0 0 0
41 1 2 0.0 0.0780856311 1.3982481956 0.3612574041 0 -1 0
42 1 3 0.0 0.0541520342 1.0856552124 0.2599401474 0 -1 0
43 1 1 0.0 0.1735759676 -0.8959051371 -0.8067027926 0 0 0
44 1 2 0.0 -0.365631938 -1.1289914846 -0.7773448825 0 0 0
45 1 3 0.0 -0.7704362273 -1.3737274408 -0.9816085696 0 0 0
46 1 1 0.0 -0.2910021245 -1.1438964605 0.4853133559 1 0 0
47 1 2 0.0 -0.6380915046 -0.9604164958 0.7739126682 1 0 0
48 1 3 0.0 -0.7646166682 -0.9181895852 1.1976796389 1 0 0
49 1 1 0.0 -0.6511185765 -0.6285409927 0.3443373442 0 1 0
50 1 2 0.0 -0.550763607 -0.8453384042 -0.0323086344 0 1 0
51 1 3 0.0 -0.2294345796 -0.9427762032 -0.3134648502 0 1 0
52 1 1 0.0 -1.2134724855 -0.6227497458 1.1091279984 0 1 0
53 1 2 0.0 -1.1489933729 -0.1755114198 0.9801075459 0 1 0
54 1 3 0.0 -0.9171816111 0.275292933 0.881364584 0 1 0
55 1 1 0.0 1.2548252344 -0.4360745549 -0.9672290087 -1 0 1
56 1 2 0.0 1.1752445698 -0.4953239262 -1.4043227434 -1 0 1
57 1 3 0.0 1.091409564 -0.7432180047 1.1797636747 -1 0 0
58 1 1 0.0 1.3160806894 0.9764035344 -0.8239360452 -1 0 0
59 1 2 0.0 -1.2678302526 1.303162694 -1.1210238934 0 0 0
60 1 3 0.0 -1.0389275551 1.4225108624 1.3231079578 0 0 -1
61 1 4 0.0 -1.3374671936 0.8315185308 -0.3285363317 1 0 0
62 1 2 0.0 -1.2434003353 0.866328299 0.0634034351 1 0 0
63 1 6 0.0 -1.1980907917 1.0734153986 0.3867690861 1 0 0
64 1 2 0.0 -1.1954367161 1.3920624256 0.7545503378 1 0 0
65 1 5 0.0 -1.3634049892 -1.0773336887 0.9134595394 1 1 0
66 1 4 0.0 0.9665463567 -0.1619249731 -0.6541433334 -1 0 0
67 1 2 0.0 0.8016177416 0.0041700979 -0.3814926147 -1 0 0
68 1 6 0.0 0.7796725631 0.1163170785 0.0435673408 -1 0 0
69 1 2 0.0 0.8569008708 0.2483853102 0.5096546412 -1 0 0
70 1 5 0.0 1.1655675173 0.3614524007 0.8419330716 -1 0 0
71 1 4 0.0 -0.8497540951 0.8730029464 0.6804366708 0 -1 0
72 1 2 0.0 -0.5428392291 1.2624986172 0.8841512203 0 -1 0
73 1 6 0.0 -0.28706792 -1.228993535 1.0048613548 0 0 0
74 1 2 0.0 0.0115298508 -0.9952928424 1.2202140093 0 0 0
75 1 5 0.0 0.3372208774 -0.8823525906 -1.3608306646 0 0 1
76 1 4 0.0 -0.0351120979 0.7397425175 1.3890775442 0 0 -1
77 1 2 0.0 -0.2987016439 0.9676741362 -1.0515996218 0 0 0
78 1 6 0.0 -0.4236061573 1.168130517 -0.7258469462 0 0 0
79 1 2 0.0 -0.4929790497 1.3804966211 -0.3701053262 0 0 0
80 1 5 0.0 -0.4080099165 -1.3466726542 -0.0024108631 0 1 0
81 1 4 0.0 0.7404494882 -1.2262479067 0.3834111691 -1 1 0
82 1 2 0.0 1.1568359137 -1.3431105614 0.2337999791 -1 1 0
83 1 6 0.0 -1.325597167 -1.3888612986 0.0527370945 0 1 0
84 1 2 0.0 -0.9403584599 -1.2052975893 -0.2041441947 0 1 0
85 1 5 0.0 -0.7981836796 -0.9871188998 -0.5284780264 0 1 0
86 1 4 0.0 0.2396208346 -1.2288410664 -0.0877486765 0 1 0
87 1 2 0.0 0.1975961626 1.1993720531 -0.3112237155 0 0 0
88 1 6 0.0 0.1760606617 0.882499516 -0.6266533732 0 0 0
89 1 2 0.0 0.0554297082 0.5649623275 -0.9876211286 0 0 0
90 1 5 0.0 -0.1951871663 0.2967849672 1.3976494074 0 0 -1
91 1 4 0.0 -0.2822991908 0.0263397731 -0.5601987243 0 0 0
92 1 2 0.0 -0.1086276844 0.1186463088 -0.1830765456 0 0 0
93 1 6 0.0 0.2611219883 0.3853074908 0.0044597117 0 0 0
94 1 2 0.0 0.6212656498 0.6205229163 0.0401115306 0 0 0
95 1 5 0.0 1.0160251856 0.9140119553 -0.111211136 0 0 0
96 1 4 0.0 -0.0832725316 -0.7351139784 0.2124716192 0 0 0
97 1 2 0.0 -0.3879923522 -0.3427844048 0.0112057254 0 0 0
98 1 6 0.0 -0.6433028579 -0.0230987668 -0.2134524733 0 0 0
99 1 2 0.0 -0.7700659037 0.3188075125 -0.4418113828 0 0 0
100 1 5 0.0 -0.8821523786 0.7085186243 -0.754896462 0 0 0
101 1 4 0.0 0.2682195008 -0.5666484833 -0.4222002029 0 0 0
102 1 2 0.0 0.2818163335 -0.3089468777 -0.0860609189 0 0 0
103 1 6 0.0 0.3171780705 -0.066998601 0.2867725194 0 0 0
104 1 2 0.0 0.2960319817 0.2318016589 0.5064057708 0 0 0
105 1 5 0.0 0.219414562 0.6630163193 0.4777779877 0 0 0
106 1 4 0.0 1.4163666964 0.1300917268 -0.4048000276 -1 0 0
107 1 2 0.0 -1.2202080488 0.2757830024 -0.8689963818 0 0 0
108 1 6 0.0 -1.0301671028 0.4350799322 -1.1785342693 0 0 0
109 1 2 0.0 -0.7709668279 0.527769208 1.3783903122 0 0 -1
110 1 5 0.0 -0.4658821225 0.7350751758 1.0565410852 0 0 -1
111 1 4 0.0 0.8625838757 -0.6143511534 -0.1996422559 -1 0 0
112 1 2 0.0 1.2965328693 -0.5064129829 -0.3861002624 -1 0 0
113 1 6 0.0 -1.2336727381 -0.368696332 -0.6365196109 0 0 0
114 1 2 0.0 -1.1091674566 -0.2389864475 -0.9987621307 0 0 0
115 1 5 0.0 -1.1858092546 -0.0639059618 -1.3601739407 0 0 0
116 1 4 0.0 -1.305329442 -0.9121850133 0.3016240001 -1 1 0
117 1 2 0.0 -0.9235321879 -1.1763397455 0.3360373676 -1 1 0
118 1 6 0.0 -0.7050947547 -1.4184955359 0.4306567907 -1 1 0
119 1 2 0.0 -0.4699134529 1.037897706 0.4020859599 -1 0 0
120 1 5 0.0 -0.2869977951 0.7370679975 0.4466299117 -1 0 0
121 1 4 0.0 -0.5846412778 -0.5471894741 -0.4529525936 1 0 0
122 1 2 0.0 -0.1578760892 -0.4709224403 -0.7221745849 1 0 0
123 1 6 0.0 0.2163177282 -0.4241736233 -1.1228811741 1 0 0
124 1 2 0.0 0.5880250931 -0.3599457741 1.3223918676 1 0 -1
125 1 5 0.0 0.9839724302 -0.251291126 0.9304209948 1 0 -1
126 1 4 0.0 -0.206110388 0.8881968856 -0.24356471 0 0 0
127 1 2 0.0 -0.340797931 0.5777745843 -0.6651775241 0 0 0
128 1 6 0.0 -0.5181686282 0.3581452668 -0.9997627139 0 0 0
129 1 2 0.0 -0.684855938 0.0462588742 -1.290117383 0 0 0
130 1 5 0.0 -0.8015581369 -0.4167774618 1.3447868824 0 0 -1
131 1 4 0.0 0.7252622247 -0.1492950618 -1.0995473862 0 0 0
132 1 2 0.0 0.6339077353 0.4124959409 -1.2280648947 0 0 0
133 1 6 0.0 0.5979072452 0.8044193387 -1.3915975094 0 0 0
134 1 2 0.0 0.644788146 1.2679241896 -1.4210345745 0 0 0
135 1 5 0.0 0.8271479011 -1.1542654037 1.3687149286 0 1 -1
136 1 4 0.0 -1.3753484488 -0.888496995 -0.789850235 1 1 0
137 1 2 0.0 -1.1768262386 -1.2867916822 -0.6657379866 1 1 0
138 1 6 0.0 -0.9693467617 1.1458412409 -0.4807076752 1 0 0
139 1 2 0.0 -0.7704162598 0.8294023275 -0.216682747 1 0 0
140 1 5 0.0 -0.5259201527 0.5362873077 -3.682802e-04 1 0 0
141 1 4 0.0 0.8430459499 -1.1226904392 -0.1087655649 -1 0 0
142 1 2 0.0 0.7223261595 1.2670946121 -0.3548319042 -1 -1 0
143 1 6 0.0 0.6169061065 0.736512959 -0.4474336207 -1 -1 0
144 1 2 0.0 0.4702162147 0.3266384602 -0.6636568308 -1 -1 0
145 1 5 0.0 0.2312367111 0.0787865743 -0.9225366116 -1 -1 0
146 1 4 0.0 -0.4049702883 1.1364848614 1.3476091623 0 -1 -1
147 1 2 0.0 0.0280028619 1.2875493765 1.2153789997 0 -1 -1
148 1 6 0.0 0.4530653358 -1.241451025 0.9596387148 0 0 -1
149 1 2 0.0 0.7975962162 -0.9564080834 0.8294456601 0 0 -1
150 1 5 0.0 1.2729114294 -0.6947449446 0.6722255349 0 0 -1
151 1 4 0.0 0.8244090676 0.9522958994 -0.9049779177 0 -1 1
152 1 2 0.0 0.5137367845 1.0596989393 -0.9697155952 0 -1 1
153 1 6 0.0 0.1367107183 1.244584918 -1.0715168715 0 -1 1
154 1 2 0.0 -0.143648684 -1.382470727 -1.1539986134 0 0 1
155 1 5 0.0 -0.4320180118 -1.1390776634 -1.3587734699 0 0 1
156 1 4 0.0 -1.1615784168 -0.9648892283 -1.3053183556 1 0 0
157 1 2 0.0 1.347443223 -1.1445022821 1.3824839592 0 0 -1
158 1 6 0.0 1.1085808277 1.3903716803 1.0271493196 0 -1 -1
159 1 2 0.0 1.0562515259 1.1045563221 0.6784804463 0 -1 -1
160 1 5 0.0 1.2536625862 0.7296873927 0.4534438252 0 -1 -1

Bonds

1 1 1 2
2 12 1 125
3 2 2 3
4 7 3 121
5 1 4 5
6 11 4 146
7 12 4 100
8 2 5 6
9 1 7 8
10 12 7 140
11 12 7 120
12 2 8 9
13 8 9 90
14 1 10 11
15 12 10 95
16 2 11 12
17 1 13 14
18 12 13 150
19 2 14 15
20 8 15 160
21 7 15 71
22 1 16 17
23 12 16 85
24 11 16 156
25 2 17 18
26 8 18 145
27 7 18 91
28 1 19 20
29 2 20 21
30 8 21 75
31 7 21 131
32 1 22 23
33 2 23 24
34 8 24 70
35 8 24 115
36 1 25 26
37 11 25 106
38 2 26 27
39 7 27 141
40 7 27 116
41 1 28 29
42 11 28 111
43 11 28 86
44 2 29 30
45 1 31 32
46 2 32 33
47 1 34 35
48 11 34 76
49 2 35 36
50 1 37 38
51 2 38 39
52 8 39 110
53 1 40 41
54 11 40 96
55 11 40 81
56 2 41 42
57 8 42 105
58 7 42 126
59 1 43 44
60 11 43 101
61 2 44 45
62 1 46 47
63 12 46 80
64 2 47 48
65 8 48 130
66 8 48 155
67 1 49 50
68 2 50 51
69 1 52 53
70 2 53 54
71 1 55 56
72 11 55 66
73 11 55 136
74 2 56 57
75 8 57 65
76 8 57 135
77 1 58 59
78 11 58 61
79 11 58 151
80 2 59 60
81 5 61 62
82 4 62 63
83 4 63 64
84 3 64 65
85 5 66 67
86 4 67 68
87 4 68 69
88 3 69 70
89 5 71 72
90 4 72 73
91 4 73 74
92 3 74 75
93 5 76 77
94 4 77 78
95 4 78 79
96 3 79 80
97 5 81 82
98 4 82 83
99 4 83 84
100 3 84 85
101 5 86 87
102 4 87 88
103 4 88 89
104 3 89 90
105 5 91 92
106 4 92 93
107 4 93 94
108 3 94 95
109 5 96 97
110 4 97 98
111 4 98 99
112 3 99 100
113 5 101 102
114 4 102 103
115 4 103 104
116 3 104 105
117 5 106 107
118 4 107 108
119 4 108 109
120 3 109 110
121 5 111 112
122 4 112 113
123 4 113 114
124 3 114 115
125 5 116 117
126 4 117 118
127 4 118 119
128 3 119 120
129 5 121 122
130 4 122 123
131 4 123 124
132 3 124 125
133 5 126 127
134 4 127 128
135 4 128 129
136 3 129 130
137 5 131 132
138 4 132 133
139 4 133 134
140 3 134 135
141 5 136 137
142 4 137 138
143 4 138 139
144 3 139 140
145 5 141 142
146 4 142 143
147 4 143 144
148 3 144 145
149 5 146 147
150 4 147 148
151 4 148 149
152 3 149 150
153 5 151 152
154 4 152 153
155 4 153 154
156 3 154 155
157 5 156 157
158 4 157 158
159 4 158 159
160 3 159 160
