# LAMMPS data file written by Ovito 3.0.0-dev349
160 atoms
160 bonds
6 atom types
12 bond types
-1.4263213875 1.4263213875 xlo xhi
-1.4263213875 1.4263213875 ylo yhi
-1.4263213875 1.4263213875 zlo zhi

Atoms # full

1 1 1 0.0 1.2879599333 -0.1531602442 0.5788903236 0 0 0
2 1 2 0.0 1.4186136723 -0.4420385361 0.1278025359 0 0 0
3 1 3 0.0 -1.062944293 -0.6932480335 -0.1486103386 1 0 0
4 1 1 0.0 -0.9067900181 0.95765239 -1.26151371 1 0 1
5 1 2 0.0 -1.2081916332 0.8770284653 1.2353895903 1 0 0
6 1 3 0.0 -1.303638339 0.9539097548 0.7904948592 1 0 0
7 1 1 0.0 -0.2743414342 0.3614308834 0.3021311462 1 -1 0
8 1 2 0.0 -0.4159122407 0.047632359 0.6427567005 1 -1 0
9 1 3 0.0 -0.4313379824 -0.0640120283 0.9877191186 1 -1 0
10 1 1 0.0 1.2685065269 1.1919336319 -0.1692660749 -1 -1 0
11 1 2 0.0 1.1592721939 -1.408919692 -0.5670239329 -1 0 0
12 1 3 0.0 1.0890417099 -1.4082149267 -1.0296278 -1 0 0
13 1 1 0.0 -1.2114967108 -0.5293630958 0.7066737413 0 0 0
14 1 2 0.0 -1.0699410439 -0.1575965434 0.4320776463 0 0 0
15 1 3 0.0 -1.0985354185 0.3443201482 0.3134969473 0 0 0
16 1 1 0.0 -0.8143943548 -0.7768954039 -1.0005877018 -1 0 1
17 1 2 0.0 -0.4610060751 -0.463648051 -1.1766887903 -1 0 1
18 1 3 0.0 -0.2394905239 -0.0691878423 -1.0915448666 -1 0 1
19 1 1 0.0 1.3488397598 -1.0356069803 -0.2625264823 -1 0 1
20 1 2 0.0 0.9009763598 -0.941894412 -0.6467809081 -1 0 1
21 1 3 0.0 0.6580536962 -0.7039518952 -1.0123394728 -1 0 1
22 1 1 0.0 0.9275590181 0.5000327826 -0.831677258 0 0 1
23 1 2 0.0 1.1330112219 0.6255671382 -1.2779726982 0 0 1
24 1 3 0.0 1.384165287 0.4206908345 1.2238698006 0 0 0
25 1 1 0.0 1.1644666195 0.0790969506 0.0767929479 0 0 1
26 1 2 0.0 0.9165859222 -0.3503422141 0.1799298078 0 0 1
27 1 3 0.0 1.0203791857 -0.8218218684 0.2204760462 0 0 1
28 1 1 0.0 0.5597739816 -0.7749342322 0.0457831435 0 0 0
29 1 2 0.0 0.5365234017 -0.5736157298 0.4948704243 0 0 0
30 1 3 0.0 0.3023369908 -0.2354859561 0.7935965657 0 0 0
31 1 1 0.0 -0.1544712782 -0.5737751126 0.9048469663 0 1 0
32 1 2 0.0 -0.0232777111 -0.3250807822 1.2609745264 0 1 0
33 1 3 0.0 0.2197928876 0.0227455664 -1.3919452429 0 1 1
34 1 1 0.0 0.4978728592 0.386295408 0.9923969507 0 -1 -1
35 1 2 0.0 0.8894590139 0.1534926742 1.2639205456 0 -1 -1
36 1 3 0.0 1.0775135756 0.0751627833 -1.1467846632 0 -1 0
37 1 1 0.0 0.8992603421 0.7981274724 1.1030176878 0 0 0
38 1 2 0.0 0.5244787335 0.9465037584 0.8606523871 0 0 0
39 1 3 0.0 0.0947424322 0.9545210004 0.7948274612 0 0 0
40 1 1 0.0 0.3178486526 -1.1130138636 0.5028296709 0 0 0
41 1 2 0.0 0.0958798826 1.3450835943 0.4063082039 0 -1 0
42 1 3 0.0 0.1505788565 1.0332750082 0.2077600509 0 -1 0
43 1 1 0.0 0.009136864 -0.914906323 -0.8503955007 0 0 0
44 1 2 0.0 -0.4322579801 -1.0426297188 -0.8416652083 0 0 0
45 1 3 0.0 -0.7666547298 1.3568176031 -0.9787911177 0 -1 0
46 1 1 0.0 -0.2824159563 -0.9860264659 0.5488909483 1 0 0
47 1 2 0.0 -0.6686763763 -0.9491584897 0.7965050936 1 0 0
48 1 3 0.0 -0.8094006777 -0.8225086331 1.2022868395 1 0 0
49 1 1 0.0 -0.6334674954 -0.413885057 0.5691056848 0 1 0
50 1 2 0.0 -0.6352357268 -0.6413398385 0.0928527117 0 1 0
51 1 3 0.0 -0.3597145677 -0.7934674621 -0.278750062 0 1 0
52 1 1 0.0 -1.3710887432 -0.3927221894 1.1287097931 0 1 0
53 1 2 0.0 -1.1073820591 -0.0196993109 0.9048014283 0 1 0
54 1 3 0.0 -0.9222844839 0.271165818 0.9525282979 0 1 0
55 1 1 0.0 1.2091959715 -0.4711923599 -0.9732556939 -1 0 1
56 1 2 0.0 1.103096962 -0.4685603976 -1.3237742186 -1 0 1
57 1 3 0.0 1.0718214512 -0.7162487507 1.2430089712 -1 0 0
58 1 1 0.0 1.39006567 0.8649603128 -0.852984488 -1 0 0
59 1 2 0.0 -1.29573524 1.2448087931 -1.1821005344 0 0 0
60 1 3 0.0 -0.9271832108 1.4174275398 1.2991979122 0 0 -1
61 1 4 0.0 -1.2751488686 0.7756480575 -0.3820287883 1 0 0
62 1 2 0.0 -1.144690156 0.8995842338 0.0743090212 1 0 0
63 1 6 0.0 -1.099370122 1.2278243303 0.4449022114 1 0 0
64 1 2 0.0 -1.1516904831 -1.2469359636 0.8284857869 1 1 0
65 1 5 0.0 -1.3482764959 -0.9227921367 1.0686304569 1 1 0
66 1 4 0.0 0.972872436 -0.2335047275 -0.6278938055 -1 0 0
67 1 2 0.0 0.7308493853 -0.0207124874 -0.3425186276 -1 0 0
68 1 6 0.0 0.6800405979 0.1841507256 -0.0044774609 -1 0 0
69 1 2 0.0 0.8141597509 0.3256058395 0.470315367 -1 0 0
70 1 5 0.0 1.0413691998 0.4392182529 0.811727345 -1 0 0
71 1 4 0.0 -0.8306981325 0.6729074717 0.6431694627 0 -1 0
72 1 2 0.0 -0.7206326127 1.1154665947 0.8237890005 0 -1 0
73 1 6 0.0 -0.5010869503 -1.3802517653 1.0114518404 0 0 0
74 1 2 0.0 -0.133652389 -1.1167236567 1.147552371 0 0 0
75 1 5 0.0 0.2520346045 -0.9232977033 -1.3931292295 0 0 1
76 1 4 0.0 0.1901956648 0.6864804029 1.3104654551 0 0 -1
77 1 2 0.0 -0.056587629 0.969859302 -1.1766518354 0 0 0
78 1 6 0.0 -0.2713412941 1.1554745436 -0.790630877 0 0 0
79 1 2 0.0 -0.3190204799 -1.3813710213 -0.3737803102 0 1 0
80 1 5 0.0 -0.2816451788 -1.2050255537 0.0456844494 0 1 0
81 1 4 0.0 0.8147445321 -1.2482092381 0.419090867 -1 1 0
82 1 2 0.0 1.193000555 -1.4018849134 0.3159495592 -1 1 0
83 1 6 0.0 -1.2312790155 -1.3632487059 0.0500766337 0 1 0
84 1 2 0.0 -0.9862653613 -1.2132931948 -0.1787285209 0 1 0
85 1 5 0.0 -0.8369191289 -0.9776664972 -0.5178958774 0 1 0
86 1 4 0.0 0.3070548177 -1.2443776131 -0.1266517639 0 1 0
87 1 2 0.0 0.1947320253 1.1814733744 -0.4419506192 0 0 0
88 1 6 0.0 0.1403872818 0.8488357067 -0.6853500009 0 0 0
89 1 2 0.0 1.803389e-04 0.5023767948 -1.1033182144 0 0 0
90 1 5 0.0 -0.2021552175 0.2668888569 1.3526107073 0 0 -1
91 1 4 0.0 -0.3110297322 0.1111527383 -0.6406120658 0 0 0
92 1 2 0.0 -0.1242901236 0.2727168202 -0.3558287621 0 0 0
93 1 6 0.0 0.1202510968 0.4202345014 -0.1427532285 0 0 0
94 1 2 0.0 0.5525456071 0.6763393879 0.0345541388 0 0 0
95 1 5 0.0 0.8440998197 0.9199786782 0.0753197894 0 0 0
96 1 4 0.0 0.0375216641 -0.6573762298 0.3739730716 0 0 0
97 1 2 0.0 -0.2236939222 -0.3489219546 0.1283909827 0 0 0
98 1 6 0.0 -0.5247693658 -0.0200043842 -0.1955295801 0 0 0
99 1 2 0.0 -0.7622379065 0.3389220834 -0.5112985969 0 0 0
100 1 5 0.0 -0.8955468535 0.6559743285 -0.7915711403 0 0 0
101 1 4 0.0 0.1891151816 -0.669182539 -0.3979499936 0 0 0
102 1 2 0.0 0.2652827203 -0.3668808043 -0.1401474923 0 0 0
103 1 6 0.0 0.3161807954 -0.0724575818 0.2729157507 0 0 0
104 1 2 0.0 0.2892739475 0.1853383183 0.4713843763 0 0 0
105 1 5 0.0 0.2605594099 0.55490762 0.4690858424 0 0 0
106 1 4 0.0 1.2902536392 0.2357305288 -0.412640065 -1 0 0
107 1 2 0.0 -1.3159428835 0.3420471251 -0.871583581 0 0 0
108 1 6 0.0 -1.020382762 0.4463817179 -1.2471491098 0 0 0
109 1 2 0.0 -0.7063523531 0.6009348035 1.3032542467 0 0 -1
110 1 5 0.0 -0.3092215359 0.7806856632 1.0492452383 0 0 -1
111 1 4 0.0 0.9518034458 -0.6414005756 -0.2643249035 -1 0 0
112 1 2 0.0 1.3325583935 -0.542865932 -0.4248488843 -1 0 0
113 1 6 0.0 -1.1989661455 -0.4432681501 -0.6809597611 0 0 0
114 1 2 0.0 -1.1520522833 -0.264079839 -1.1235009432 0 0 0
115 1 5 0.0 -1.2948950529 0.0056759175 -1.4098736048 0 0 0
116 1 4 0.0 -1.3659428358 -0.9258905649 0.3044827878 -1 1 0
117 1 2 0.0 -1.0082865953 -1.0497175455 0.3588705659 -1 1 0
118 1 6 0.0 -0.6712639928 -1.2987673283 0.4006925523 -1 1 0
119 1 2 0.0 -0.416425854 1.1808279753 0.4131401777 -1 0 0
120 1 5 0.0 -0.2715382278 0.8270815611 0.4452531636 -1 0 0
121 1 4 0.0 -0.6741462946 -0.4477640688 -0.4314126968 1 0 0
122 1 2 0.0 -0.1958844215 -0.4126197994 -0.7115235925 1 0 0
123 1 6 0.0 0.138714239 -0.4980828464 -1.1089762449 1 0 0
124 1 2 0.0 0.5346648097 -0.4148097932 1.3591204882 1 0 -1
125 1 5 0.0 0.876807332 -0.2729557753 0.9213781357 1 0 -1
126 1 4 0.0 -0.1921589077 0.9035865068 -0.2563867271 0 0 0
127 1 2 0.0 -0.3578001559 0.6775092483 -0.6954470277 0 0 0
128 1 6 0.0 -0.5165148377 0.3745585084 -1.0277127028 0 0 0
129 1 2 0.0 -0.7049350142 0.0321067572 -1.3178620338 0 0 0
130 1 5 0.0 -0.7804017663 -0.3222436607 1.311729908 0 0 -1
131 1 4 0.0 0.6382326484 -0.2002953291 -1.0622624159 0 0 0
132 1 2 0.0 0.5918298364 0.2829061151 -1.1748422384 0 0 0
133 1 6 0.0 0.5749517083 0.6814646125 -1.2598898411 0 0 0
134 1 2 0.0 0.6837599277 1.1478277445 -1.3507252932 0 0 0
135 1 5 0.0 0.8084133267 -1.2034292221 1.392329812 0 1 -1
136 1 4 0.0 -1.4226254225 -0.9188401103 -0.8169647455 1 1 0
137 1 2 0.0 -1.2040740252 -1.3393876553 -0.6849815845 1 1 0
138 1 6 0.0 -0.9679756761 1.1717950106 -0.5195048451 1 0 0
139 1 2 0.0 -0.7223473787 0.9069368243 -0.3244314194 1 0 0
140 1 5 0.0 -0.5153484344 0.5496566892 -0.1153479367 1 0 0
141 1 4 0.0 0.8647638559 -1.2426342964 -0.0776481852 -1 0 0
142 1 2 0.0 0.7090170383 1.21304214 -0.3220306337 -1 -1 0
143 1 6 0.0 0.6070702076 0.7910684347 -0.4632568955 -1 -1 0
144 1 2 0.0 0.4924264252 0.2868845463 -0.6763176918 -1 -1 0
145 1 5 0.0 0.2502836287 0.0452963896 -0.8844680786 -1 -1 0
146 1 4 0.0 -0.4702099562 1.1078484058 -1.4206330776 0 -1 0
147 1 2 0.0 -0.0097640092 1.2769107819 1.2259428501 0 -1 -1
148 1 6 0.0 0.3513355851 -1.3290653229 1.0644396544 0 0 -1
149 1 2 0.0 0.7016807199 -1.0240911245 0.8999116421 0 0 -1
150 1 5 0.0 1.1500518322 -0.7686496377 0.7206310034 0 0 -1
151 1 4 0.0 0.908516109 1.0099651814 -0.8162289858 0 -1 1
152 1 2 0.0 0.5577974319 1.228248477 -0.8105006218 0 -1 1
153 1 6 0.0 0.2143355608 -1.4074739218 -0.9562797546 0 0 1
154 1 2 0.0 -0.1455474794 -1.3208920956 -1.1443601847 0 0 1
155 1 5 0.0 -0.5552632213 -1.1692168713 -1.3410620689 0 0 1
156 1 4 0.0 -1.1500716209 -1.068313241 -1.2830979824 1 0 0
157 1 2 0.0 1.3398801088 -1.3390676975 1.2821712494 0 0 -1
158 1 6 0.0 1.100092411 1.2492423058 0.9410689473 0 -1 -1
159 1 2 0.0 1.0649060011 0.9729809165 0.5870186687 0 -1 -1
160 1 5 0.0 1.3206467628 0.6014189124 0.3678314686 0 -1 -1

Bonds

1 1 1 2
2 12 1 125
3 2 2 3
4 7 3 121
5 1 4 5
6 11 4 146
7 12 4 100
8 2 5 6
9 1 7 8
10 12 7 140
11 12 7 120
12 2 8 9
13 8 9 90
14 1 10 11
15 12 10 95
16 2 11 12
17 1 13 14
18 12 13 150
19 2 14 15
20 8 15 160
21 7 15 71
22 1 16 17
23 12 16 85
24 11 16 156
25 2 17 18
26 8 18 145
27 7 18 91
28 1 19 20
29 2 20 21
30 8 21 75
31 7 21 131
32 1 22 23
33 2 23 24
34 8 24 70
35 8 24 115
36 1 25 26
37 11 25 106
38 2 26 27
39 7 27 141
40 7 27 116
41 1 28 29
42 11 28 111
43 11 28 86
44 2 29 30
45 1 31 32
46 2 32 33
47 1 34 35
48 11 34 76
49 2 35 36
50 1 37 38
51 2 38 39
52 8 39 110
53 1 40 41
54 11 40 96
55 11 40 81
56 2 41 42
57 8 42 105
58 7 42 126
59 1 43 44
60 11 43 101
61 2 44 45
62 1 46 47
63 12 46 80
64 2 47 48
65 8 48 130
66 8 48 155
67 1 49 50
68 2 50 51
69 1 52 53
70 2 53 54
71 1 55 56
72 11 55 66
73 11 55 136
74 2 56 57
75 8 57 65
76 8 57 135
77 1 58 59
78 11 58 61
79 11 58 151
80 2 59 60
81 5 61 62
82 4 62 63
83 4 63 64
84 3 64 65
85 5 66 67
86 4 67 68
87 4 68 69
88 3 69 70
89 5 71 72
90 4 72 73
91 4 73 74
92 3 74 75
93 5 76 77
94 4 77 78
95 4 78 79
96 3 79 80
97 5 81 82
98 4 82 83
99 4 83 84
100 3 84 85
101 5 86 87
102 4 87 88
103 4 88 89
104 3 89 90
105 5 91 92
106 4 92 93
107 4 93 94
108 3 94 95
109 5 96 97
110 4 97 98
111 4 98 99
112 3 99 100
113 5 101 102
114 4 102 103
115 4 103 104
116 3 104 105
117 5 106 107
118 4 107 108
119 4 108 109
120 3 109 110
121 5 111 112
122 4 112 113
123 4 113 114
124 3 114 115
125 5 116 117
126 4 117 118
127 4 118 119
128 3 119 120
129 5 121 122
130 4 122 123
131 4 123 124
132 3 124 125
133 5 126 127
134 4 127 128
135 4 128 129
136 3 129 130
137 5 131 132
138 4 132 133
139 4 133 134
140 3 134 135
141 5 136 137
142 4 137 138
143 4 138 139
144 3 139 140
145 5 141 142
146 4 142 143
147 4 143 144
148 3 144 145
149 5 146 147
150 4 147 148
151 4 148 149
152 3 149 150
153 5 151 152
154 4 152 153
155 4 153 154
156 3 154 155
157 5 156 157
158 4 157 158
159 4 158 159
160 3 159 160
