# LAMMPS data file written by Ovito 3.0.0-dev349
160 atoms
160 bonds
6 atom types
12 bond types
-1.425227046 1.425227046 xlo xhi
-1.425227046 1.425227046 ylo yhi
-1.425227046 1.425227046 zlo zhi

Atoms # full

1 1 1 0.0 1.403989315 -0.0810309723 0.5552669168 0 0 0
2 1 2 0.0 -1.3126524687 -0.3054347634 0.0920744389 1 0 0
3 1 3 0.0 -1.0464984179 -0.6613004804 -0.1313170493 1 0 0
4 1 1 0.0 -0.8166790009 1.0335330963 -1.3222929239 1 0 1
5 1 2 0.0 -1.1662563086 1.0112444162 1.3070766926 1 0 0
6 1 3 0.0 -1.3938543797 0.8104395866 0.9031262994 1 0 0
7 1 1 0.0 -0.3116764128 0.2188201696 0.1841758639 1 -1 0
8 1 2 0.0 -0.3333519697 -0.0281924531 0.5760284066 1 -1 0
9 1 3 0.0 -0.4461084306 -0.0391375646 1.0425871611 1 -1 0
10 1 1 0.0 1.1867634058 1.120169878 0.1761736125 -1 -1 0
11 1 2 0.0 1.3200824261 1.2851318121 -0.3436123133 -1 -1 0
12 1 3 0.0 1.2030318975 -1.418581605 -0.8043505549 -1 0 0
13 1 1 0.0 -1.0600248575 -0.4316738546 0.6707157493 0 0 0
14 1 2 0.0 -0.9596081972 -0.0261584744 0.4130191505 0 0 0
15 1 3 0.0 -1.1040551662 0.4516882896 0.3016700745 0 0 0
16 1 1 0.0 -0.8129974008 -0.8286194801 -1.0187562704 -1 0 1
17 1 2 0.0 -0.577281177 -0.5108796358 -1.1123098135 -1 0 1
18 1 3 0.0 -0.3768549562 -0.0542165861 -1.0078830719 -1 0 1
19 1 1 0.0 0.7919686437 -1.2284319401 -0.5820480585 -1 0 1
20 1 2 0.0 0.8660106063 -0.9884027839 -0.8794488311 -1 0 1
21 1 3 0.0 0.6465939283 -0.6338421106 -1.1376839876 -1 0 1
22 1 1 0.0 1.0713413954 0.4617424607 -0.7199547291 0 0 1
23 1 2 0.0 1.101282835 0.4433952868 -1.1604696512 0 0 1
24 1 3 0.0 1.382729888 0.3377955258 1.299287796 0 0 0
25 1 1 0.0 1.2170964479 0.1645728201 0.0757363215 0 0 1
26 1 2 0.0 1.0250124931 -0.2570806146 0.1926210374 0 0 1
27 1 3 0.0 1.0978832245 -0.7923482656 0.3404686451 0 0 1
28 1 1 0.0 0.569761157 -0.8948090076 0.0752891302 0 0 0
29 1 2 0.0 0.5512634516 -0.7126373649 0.4799628854 0 0 0
30 1 3 0.0 0.3345206976 -0.7241651416 0.8351640105 0 0 0
31 1 1 0.0 -0.3677331209 -0.5380080342 1.1909251213 0 1 0
32 1 2 0.0 -0.0170278754 -0.4427811205 1.0870153904 0 1 0
33 1 3 0.0 0.2798600197 -0.2434624881 0.7038399577 0 1 0
34 1 1 0.0 0.1168149561 0.3456966579 0.9906436205 0 -1 -1
35 1 2 0.0 0.5628584027 0.1756533533 1.0614017248 0 -1 -1
36 1 3 0.0 0.8995919824 0.0306287818 1.3383885622 0 -1 -1
37 1 1 0.0 0.9339119792 0.6606894135 1.2391824722 0 0 0
38 1 2 0.0 0.4709997773 0.8926309347 1.0144895315 0 0 0
39 1 3 0.0 0.0626778677 0.9078202248 0.746470809 0 0 0
40 1 1 0.0 0.1838438511 -1.1518200636 0.5733625889 0 0 0
41 1 2 0.0 0.0394847281 1.3637527227 0.4533674419 0 -1 0
42 1 3 0.0 0.0819023177 1.0461798906 0.1772087365 0 -1 0
43 1 1 0.0 0.1759551316 -1.0273376703 -0.8465440869 0 0 0
44 1 2 0.0 -0.2562733293 -1.0941721201 -0.8255381584 0 0 0
45 1 3 0.0 -0.6324868202 -1.3804459572 -0.9248504043 0 0 0
46 1 1 0.0 -0.2985329926 -1.123889327 0.4616829753 1 0 0
47 1 2 0.0 -0.6095672846 -0.8555008769 0.7650756836 1 0 0
48 1 3 0.0 -0.8069068789 -0.7842562199 1.0967392921 1 0 0
49 1 1 0.0 -0.7823224068 -0.5301322341 0.2840306163 0 1 0
50 1 2 0.0 -0.5306678414 -0.8693514466 0.0302626304 0 1 0
51 1 3 0.0 -0.1606051028 -0.9345375299 -0.2951083183 0 1 0
52 1 1 0.0 -1.3563678265 -0.1526055336 1.0467779636 0 1 0
53 1 2 0.0 -1.027816534 0.1282414645 0.9920342565 0 1 0
54 1 3 0.0 -0.7457713485 0.3600136042 0.7495540977 0 1 0
55 1 1 0.0 1.1695929766 -0.4208563268 -0.8923838735 -1 0 1
56 1 2 0.0 1.1426445246 -0.4108063579 -1.262573719 -1 0 1
57 1 3 0.0 1.0835777521 -0.6262392402 1.2889010906 -1 0 0
58 1 1 0.0 1.4207818508 0.9042342305 -0.8626000285 -1 0 0
59 1 2 0.0 -1.2328121662 1.302557826 -1.1342629194 0 0 0
60 1 3 0.0 -0.9773920774 -1.3656045198 1.3158150911 0 1 -1
61 1 4 0.0 -1.2560908794 0.8540799022 -0.3635208905 1 0 0
62 1 2 0.0 -1.1910562515 0.9840977192 0.0121481353 1 0 0
63 1 6 0.0 -1.2119216919 1.2465338707 0.4572244883 1 0 0
64 1 2 0.0 -1.205463171 -1.3026740551 0.8563104868 1 1 0
65 1 5 0.0 -1.4107272625 -0.9994649291 1.0488615036 1 1 0
66 1 4 0.0 0.8755298257 -0.153172195 -0.5514367819 -1 0 0
67 1 2 0.0 0.7801614404 0.0106151374 -0.2880935371 -1 0 0
68 1 6 0.0 0.7016554475 0.1830386668 0.1021537557 -1 0 0
69 1 2 0.0 0.8322947025 0.2699234486 0.52395612 -1 0 0
70 1 5 0.0 1.1168005466 0.3117743731 0.8807544708 -1 0 0
71 1 4 0.0 -0.9228021502 0.8291050792 0.6201272607 0 -1 0
72 1 2 0.0 -0.6983662248 1.1406906843 0.879717648 0 -1 0
73 1 6 0.0 -0.4329791665 -1.3523226976 0.9260664582 0 0 0
74 1 2 0.0 -0.0525923111 -1.0515851974 1.0666791201 0 0 0
75 1 5 0.0 0.2585584819 -0.8739024401 1.379080534 0 0 0
76 1 4 0.0 0.0197996199 0.6881847382 1.3784868717 0 0 -1
77 1 2 0.0 -0.1339266002 0.9592317939 -1.1265838146 0 0 0
78 1 6 0.0 -0.2281461358 1.2139816284 -0.7565873861 0 0 0
79 1 2 0.0 -0.3389289081 1.3580930233 -0.4283222258 0 0 0
80 1 5 0.0 -0.3181837499 -1.3410959244 -0.0323974714 0 1 0
81 1 4 0.0 0.7905637026 -1.2536313534 0.5134932995 -1 1 0
82 1 2 0.0 1.1890832186 -1.2965116501 0.4270418584 -1 1 0
83 1 6 0.0 -1.3023835421 -1.2969623804 0.1031903699 0 1 0
84 1 2 0.0 -0.9674885869 -1.1962139606 -0.1288139224 0 1 0
85 1 5 0.0 -0.7333093286 -1.0350886583 -0.5420312881 0 1 0
86 1 4 0.0 0.3774399161 -1.3700723648 -0.0991409048 0 1 0
87 1 2 0.0 0.2720733583 1.1195733547 -0.3170899451 0 0 0
88 1 6 0.0 0.1339645982 0.7883401513 -0.6338770986 0 0 0
89 1 2 0.0 -0.0656904802 0.4627278745 -0.9870729446 0 0 0
90 1 5 0.0 -0.2559086382 0.2310981899 1.406550169 0 0 -1
91 1 4 0.0 -0.3370989263 0.1372503638 -0.5728240013 0 0 0
92 1 2 0.0 -0.1301193088 0.3188017905 -0.3166377544 0 0 0
93 1 6 0.0 0.1474431604 0.4828150868 -0.1404140592 0 0 0
94 1 2 0.0 0.4988707304 0.6679717898 -0.0132553456 0 0 0
95 1 5 0.0 0.7875259519 0.8473347425 0.1490418017 0 0 0
96 1 4 0.0 -0.0021265489 -0.7249090672 0.2818837464 0 0 0
97 1 2 0.0 -0.3395988941 -0.3350092173 0.0655412003 0 0 0
98 1 6 0.0 -0.6465792656 -0.0019724558 -0.1844993979 0 0 0
99 1 2 0.0 -0.7902593017 0.406085521 -0.5190725327 0 0 0
100 1 5 0.0 -0.8578442335 0.7990214229 -0.8605704904 0 0 0
101 1 4 0.0 0.3264493346 -0.7001798749 -0.4371542633 0 0 0
102 1 2 0.0 0.3297036886 -0.4770290256 -0.1281153411 0 0 0
103 1 6 0.0 0.3166543245 -0.1452471614 0.1872556061 0 0 0
104 1 2 0.0 0.2629179955 0.2197283953 0.4683718085 0 0 0
105 1 5 0.0 0.2572289407 0.5850331187 0.4260552824 0 0 0
106 1 4 0.0 -1.376031518 0.2607555091 -0.3822977245 0 0 0
107 1 2 0.0 -1.2422105074 0.4333498478 -0.8254538774 0 0 0
108 1 6 0.0 -1.0350687504 0.5052004457 -1.2719526291 0 0 0
109 1 2 0.0 -0.7263768315 0.5845406055 1.2656261921 0 0 -1
110 1 5 0.0 -0.3873615265 0.7263672948 0.948638916 0 0 -1
111 1 4 0.0 0.9514445662 -0.6662800908 -0.1790277362 -1 0 0
112 1 2 0.0 1.3445039988 -0.5650756359 -0.3414992094 -1 0 0
113 1 6 0.0 -1.1152350903 -0.4429574311 -0.6291205287 0 0 0
114 1 2 0.0 -1.0455703735 -0.2668726742 -1.0180078745 0 0 0
115 1 5 0.0 -1.2354382277 -0.0523999371 -1.3087922335 0 0 0
116 1 4 0.0 -1.2700386047 -0.9284331203 0.4543316364 -1 1 0
117 1 2 0.0 -0.9240943193 -1.1520959139 0.422162503 -1 1 0
118 1 6 0.0 -0.673096776 1.4085185528 0.3560789227 -1 0 0
119 1 2 0.0 -0.4613228142 1.0548708439 0.33486408 -1 0 0
120 1 5 0.0 -0.2971092761 0.7072685957 0.33907938 -1 0 0
121 1 4 0.0 -0.6260833144 -0.5391260982 -0.4456548691 1 0 0
122 1 2 0.0 -0.1785574406 -0.5275040865 -0.7881605029 1 0 0
123 1 6 0.0 0.1588522643 -0.4410841763 -1.2600213289 1 0 0
124 1 2 0.0 0.5529470444 -0.3200467825 1.2103154659 1 0 -1
125 1 5 0.0 0.924359262 -0.2166273147 0.8864373565 1 0 -1
126 1 4 0.0 -0.1797318161 0.8883396983 -0.2216099948 0 0 0
127 1 2 0.0 -0.3640852571 0.6995582581 -0.642773807 0 0 0
128 1 6 0.0 -0.562484622 0.4850774705 -1.078578949 0 0 0
129 1 2 0.0 -0.7551470995 0.1043183431 -1.3907709122 0 0 0
130 1 5 0.0 -0.8703758121 -0.312734127 1.2843886614 0 0 -1
131 1 4 0.0 0.6198603511 -0.0685412511 -1.0810168982 0 0 0
132 1 2 0.0 0.5147269368 0.4103721082 -1.1376017332 0 0 0
133 1 6 0.0 0.4742072225 0.812348485 -1.2415943146 0 0 0
134 1 2 0.0 0.5897766948 1.3709661961 -1.360409379 0 0 0
135 1 5 0.0 0.7850728035 -1.0635546446 -1.4152321815 0 1 0
136 1 4 0.0 -1.3851649761 -0.8601206541 -0.7579840422 1 1 0
137 1 2 0.0 -1.1954774857 -1.2531772852 -0.6493405104 1 1 0
138 1 6 0.0 -0.9363487363 1.241476655 -0.5525401831 1 0 0
139 1 2 0.0 -0.7428564429 0.8881417513 -0.3452189863 1 0 0
140 1 5 0.0 -0.5894333124 0.5520032644 -0.1083118245 1 0 0
141 1 4 0.0 0.9630892277 -1.2046556473 -0.0673397556 -1 0 0
142 1 2 0.0 0.8190028667 1.196516037 -0.3023679852 -1 -1 0
143 1 6 0.0 0.6791697145 0.7752133608 -0.4293135405 -1 -1 0
144 1 2 0.0 0.4452635348 0.3527085185 -0.5802022815 -1 -1 0
145 1 5 0.0 0.1618772 0.004304158 -0.8322328329 -1 -1 0
146 1 4 0.0 -0.3448691666 1.1177926064 1.3061475754 0 -1 -1
147 1 2 0.0 0.0972419605 1.3041534424 1.1523067951 0 -1 -1
148 1 6 0.0 0.4630305767 -1.268789649 0.9780741334 0 0 -1
149 1 2 0.0 0.8634928465 -0.9523186088 0.8900535107 0 0 -1
150 1 5 0.0 1.2416455746 -0.6124091744 0.7721491456 0 0 -1
151 1 4 0.0 0.9003999829 0.9919885993 -0.8663656712 0 -1 1
152 1 2 0.0 0.5442090034 1.1656422615 -0.8725475669 0 -1 1
153 1 6 0.0 0.2258840352 1.3488150835 -1.025841713 0 -1 1
154 1 2 0.0 -0.1323969513 -1.3130859137 -1.2545081377 0 0 1
155 1 5 0.0 -0.5049410462 -0.9751790762 -1.3885227442 0 0 1
156 1 4 0.0 -1.2292654514 -1.0281602144 -1.2618430853 1 0 0
157 1 2 0.0 1.2705032825 -1.2512742281 1.4150601625 0 0 -1
158 1 6 0.0 0.9918407798 1.3049026728 1.1378791332 0 -1 -1
159 1 2 0.0 0.9573690891 0.9783077836 0.7880265117 0 -1 -1
160 1 5 0.0 1.2780592442 0.6377946138 0.4048824906 0 -1 -1

Bonds

1 1 1 2
2 12 1 125
3 2 2 3
4 7 3 121
5 1 4 5
6 11 4 146
7 12 4 100
8 2 5 6
9 1 7 8
10 12 7 140
11 12 7 120
12 2 8 9
13 8 9 90
14 1 10 11
15 12 10 95
16 2 11 12
17 1 13 14
18 12 13 150
19 2 14 15
20 8 15 160
21 7 15 71
22 1 16 17
23 12 16 85
24 11 16 156
25 2 17 18
26 8 18 145
27 7 18 91
28 1 19 20
29 2 20 21
30 8 21 75
31 7 21 131
32 1 22 23
33 2 23 24
34 8 24 70
35 8 24 115
36 1 25 26
37 11 25 106
38 2 26 27
39 7 27 141
40 7 27 116
41 1 28 29
42 11 28 111
43 11 28 86
44 2 29 30
45 1 31 32
46 2 32 33
47 1 34 35
48 11 34 76
49 2 35 36
50 1 37 38
51 2 38 39
52 8 39 110
53 1 40 41
54 11 40 96
55 11 40 81
56 2 41 42
57 8 42 105
58 7 42 126
59 1 43 44
60 11 43 101
61 2 44 45
62 1 46 47
63 12 46 80
64 2 47 48
65 8 48 130
66 8 48 155
67 1 49 50
68 2 50 51
69 1 52 53
70 2 53 54
71 1 55 56
72 11 55 66
73 11 55 136
74 2 56 57
75 8 57 65
76 8 57 135
77 1 58 59
78 11 58 61
79 11 58 151
80 2 59 60
81 5 61 62
82 4 62 63
83 4 63 64
84 3 64 65
85 5 66 67
86 4 67 68
87 4 68 69
88 3 69 70
89 5 71 72
90 4 72 73
91 4 73 74
92 3 74 75
93 5 76 77
94 4 77 78
95 4 78 79
96 3 79 80
97 5 81 82
98 4 82 83
99 4 83 84
100 3 84 85
101 5 86 87
102 4 87 88
103 4 88 89
104 3 89 90
105 5 91 92
106 4 92 93
107 4 93 94
108 3 94 95
109 5 96 97
110 4 97 98
111 4 98 99
112 3 99 100
113 5 101 102
114 4 102 103
115 4 103 104
116 3 104 105
117 5 106 107
118 4 107 108
119 4 108 109
120 3 109 110
121 5 111 112
122 4 112 113
123 4 113 114
124 3 114 115
125 5 116 117
126 4 117 118
127 4 118 119
128 3 119 120
129 5 121 122
130 4 122 123
131 4 123 124
132 3 124 125
133 5 126 127
134 4 127 128
135 4 128 129
136 3 129 130
137 5 131 132
138 4 132 133
139 4 133 134
140 3 134 135
141 5 136 137
142 4 137 138
143 4 138 139
144 3 139 140
145 5 141 142
146 4 142 143
147 4 143 144
148 3 144 145
149 5 146 147
150 4 147 148
151 4 148 149
152 3 149 150
153 5 151 152
154 4 152 153
155 4 153 154
156 3 154 155
157 5 156 157
158 4 157 158
159 4 158 159
160 3 159 160
